LAMMPS data file via write_data, version 27 Oct 2021, timestep = 4180000

256 atoms
1 atom types

0.5944651462590702 17.405534853738057 xlo xhi
0.5944651462590702 17.405534853738057 ylo yhi
0.5944651462590702 17.405534853738057 zlo zhi
6.8278629140808675 6.94511950914142 1.3904830828888575 xy xz yz

Masses

1 26.98154

Atoms # full

72 0 1 0 18.810357551966334 3.849604333927919 2.1927030826136873 45 -6 -1
106 0 1 0 17.998697529247977 9.194210570404808 3.8465223637791666 -110 19 4
95 0 1 0 16.806581071144684 8.0642468179119 1.7277718625028768 148 -33 -2
73 0 1 0 9.160493437151816 7.271361611880858 1.3191306157482692 -245 27 4
118 0 1 0 8.375577239661354 4.395239847341676 2.073179563272395 -308 23 0
17 0 1 0 17.85278687211455 0.8734704983608914 2.457708077555669 -260 31 5
29 0 1 0 16.05651306029104 2.985541986027422 3.0726155199711003 -239 25 2
147 0 1 0 11.47658857542248 7.250019064993916 2.6032251405503777 -195 20 -2
187 0 1 0 4.047073534676665 2.0167249730838974 2.390041690550993 -114 18 4
241 0 1 0 7.060863756699167 1.823921709497669 2.3481616863976296 -135 3 2
1 0 1 0 14.375512259103823 1.9558116039767997 1.3427972720509151 -122 15 -4
35 0 1 0 11.197502459922875 4.875640324795181 1.595292773623933 161 -20 1
114 0 1 0 13.090166028086854 4.744841113079908 3.0554497020205758 -411 35 5
123 0 1 0 18.788123817866257 6.983580680038326 2.625831032956726 83 -8 -4
113 0 1 0 3.838350096851917 5.4387861066637715 0.907897139258155 -121 18 4
179 0 1 0 20.608513376728027 8.425084053134409 1.4588315269514194 361 -49 -6
207 0 1 0 5.814365451496568 6.926217478760342 2.5754076238784256 -247 27 2
9 0 1 0 15.603717369944325 5.145717415532183 2.167849812567627 138 -27 -4
112 0 1 0 10.659734223395338 2.830447592640629 3.025854279520725 -413 49 7
71 0 1 0 13.916795403324883 7.596619676771138 1.6241176933417742 66 -10 -4
196 0 1 0 9.697583424737811 5.376242615727112 3.8734971272952325 -278 35 3
238 0 1 0 3.8721545968110176 5.146206254207733 3.9431336762653744 -194 24 0
70 0 1 0 8.125075271373028 7.951834894705325 4.205492802373409 40 -7 2
30 0 1 0 17.688511821697922 8.33389319336628 6.12951918363818 -177 20 7
48 0 1 0 11.41510596164792 1.5049694401638272 5.856827313260767 363 -30 -6
42 0 1 0 17.448181610239224 5.174252121188947 4.368400725064195 192 -30 -7
131 0 1 0 10.603060888331884 7.315880615246628 5.44938645448612 296 -33 -4
201 0 1 0 15.128473338746605 8.214209371712851 6.418129975120945 -272 43 4
5 0 1 0 20.690054857930264 7.9723849854614866 4.519368269484067 -106 13 2
245 0 1 0 5.41585286878741 2.5522301165681456 4.866574061697323 -409 51 4
89 0 1 0 14.5645135993138 5.568502876098601 5.087368900647028 -187 8 2
212 0 1 0 6.773872652860011 5.301110089832556 4.432993001073717 -50 14 2
3 0 1 0 20.29059590116787 8.687187868012902 6.960576598044743 -114 15 2
129 0 1 0 15.805294476205836 3.3225799829404052 6.491396841249771 79 -11 -6
20 0 1 0 12.553875439360889 6.7563896106204036 6.87043879950021 -74 6 -6
197 0 1 0 9.078311909656527 2.8140299818075105 4.973158038096859 -187 18 2
173 0 1 0 8.076268392501404 6.381503805502094 6.6277761760110545 88 -5 4
142 0 1 0 5.456399767525822 6.44475544814862 6.2681858174665575 -125 6 7
121 0 1 0 11.82069636483249 4.1955080847165265 5.443235800490692 -280 26 2
8 0 1 0 13.116978206433664 8.021985888161819 4.28054793455386 74 -14 -4
25 0 1 0 16.87474425214168 1.0576598728125162 5.493757754205418 -311 32 4
213 0 1 0 18.841668281091074 3.0605062116602992 5.066167274671146 74 -24 -5
229 0 1 0 19.27454049764431 6.063130553173362 6.246885423179441 129 -11 -4
56 0 1 0 4.445557113007322 3.972269553693663 6.802330822816376 123 -7 -2
87 0 1 0 13.591456008809105 2.4317859407562423 4.745980947956708 20 -2 1
159 0 1 0 15.76198993845358 7.621418634287238 3.9705009094558394 146 -18 -9
153 0 1 0 7.157931011176338 3.9832173879810666 6.835980508498875 22 -11 1
165 0 1 0 18.820941239752386 3.892559373820358 7.7506978227914685 -432 46 5
156 0 1 0 10.354722866251258 5.160659091515733 7.509440884978884 110 -17 2
82 0 1 0 17.600099590645016 6.531410664204949 8.023648916058487 17 -1 -4
57 0 1 0 20.794367729487988 6.22109038185541 8.560430721792368 69 -16 -5
199 0 1 0 11.552576235978943 8.05228643664077 9.319430255667505 -158 12 -4
10 0 1 0 16.451082042515942 2.0312677991382246 9.128347546936197 84 -12 -5
246 0 1 0 12.48696821078345 5.4839709062928526 9.901018979497849 -211 23 4
16 0 1 0 7.522252091975866 5.314978750765302 9.80175709141753 167 -22 -3
134 0 1 0 12.83173036091988 3.5325067134417534 7.770501913753727 290 -24 -5
15 0 1 0 12.107186386495803 1.7456869324478028 9.551091613102448 12 2 1
43 0 1 0 9.363811261606672 7.956305002025278 8.650663978613128 43 -5 0
218 0 1 0 14.334866231256177 3.2331110876296894 10.285934164347704 -248 29 1
111 0 1 0 15.866327107733701 8.523531067841308 8.807391189497318 146 -19 -4
12 0 1 0 10.243642571144191 3.8280457653438233 10.083295644592212 94 -14 -3
216 0 1 0 19.419696094944975 2.2162149200756063 9.969851195013776 -255 33 3
83 0 1 0 21.827199378842813 3.850748960046873 9.606052270938747 24 8 0
198 0 1 0 23.17682031654185 8.122533998461703 7.955863306508243 171 -20 -5
22 0 1 0 7.531746824395325 2.6294432107422616 9.590829224406285 -211 19 1
223 0 1 0 24.11829497222363 8.11720501352388 10.329818868078847 -111 7 -7
92 0 1 0 20.911950975505007 8.41097879351447 9.85810104072707 55 -18 -2
28 0 1 0 14.669907259327507 5.816212024687159 8.306953918387613 255 -29 -4
183 0 1 0 16.622904078347702 4.505411856508866 9.240102026486062 20 5 2
221 0 1 0 4.488089654466181 1.5396331059543202 7.368321067834372 15 6 -1
249 0 1 0 17.725233645962717 7.751952324809684 10.473842612541484 -4 -6 -7
19 0 1 0 18.829043967412353 5.203205196160404 10.601844914210783 71 -9 -9
208 0 1 0 9.611725365493925 2.340697650990286 8.01646015456361 9 2 1
140 0 1 0 15.305179135993475 8.12267421657613 12.181316040402738 -101 18 3
214 0 1 0 19.734544839527338 9.581004532446151 11.811609307704977 -301 40 2
122 0 1 0 22.465097476164246 8.48781457052084 12.56939549672199 -324 29 4
151 0 1 0 22.1814916680932 6.448526068052303 10.812731641049567 -155 18 8
54 0 1 0 9.927541466823339 8.193696834084797 11.649778581904519 -85 0 1
13 0 1 0 17.511171720066706 8.22408293874263 13.45184659052716 -83 0 0
231 0 1 0 10.359385426763696 5.777480744416559 11.45397631708039 98 -12 -2
170 0 1 0 16.140504097920072 3.4131324971344013 11.788725820126698 -165 17 2
2 0 1 0 19.704493146499694 3.56297282476822 12.699856155675937 -191 25 3
75 0 1 0 12.61000877083273 7.326105495345729 12.744424633508952 -213 17 -1
86 0 1 0 20.39816501177345 6.474416958970859 12.99429775237446 -328 39 0
39 0 1 0 7.7657887405040835 6.38191911053104 12.443088030969852 -34 9 -2
180 0 1 0 14.899787009405253 5.729151632814241 10.917555546313238 -122 5 2
200 0 1 0 8.602459586615089 3.7076485887425035 12.220518661385249 56 -13 4
99 0 1 0 17.28990305320177 5.85531170459187 12.71620594174637 -93 11 -6
211 0 1 0 12.399033225750582 9.740446292033422 11.211882336358244 -58 12 2
190 0 1 0 22.46758102195335 4.0244054241249465 12.358284699810515 -294 38 -1
79 0 1 0 12.483966559566793 1.9048494905476736 12.387087538489146 -52 5 8
34 0 1 0 12.767198466067113 4.683521219803796 12.661678945362095 35 -2 -2
27 0 1 0 17.502272067370505 3.847841714962166 14.723710710002868 98 -9 -3
117 0 1 0 13.647845631557319 8.988842277458797 14.574119607399183 501 74 2
178 0 1 0 16.294871666901003 4.162249178274445 17.122715104430064 -58 2 0
133 0 1 0 14.3307883013169 3.5817473501827886 14.44442881903389 -41 -2 -3
55 0 1 0 20.71450150042851 6.256996138107048 16.919846657892933 -240 29 1
109 0 1 0 22.584159632531325 8.284121161387489 16.01038680082155 -188 24 3
149 0 1 0 25.35116060799787 7.0511352716111775 16.534365125876207 -49 -3 -2
188 0 1 0 20.59336420934833 8.48937716048356 14.38771817889078 -128 16 3
135 0 1 0 10.282085690446532 4.125588916008392 16.73221277972798 374 -55 -3
172 0 1 0 10.573417262517319 8.493411833762554 15.214731635779188 249 -32 1
60 0 1 0 18.947918111653145 8.801540944758631 16.490065492107924 242 -17 -3
116 0 1 0 21.291194417752926 3.9135126627635 15.284767812236284 -85 17 -3
220 0 1 0 13.918654712744713 7.290335962148174 16.967734887662246 -106 3 3
255 0 1 0 11.876236739691892 6.056076134152164 15.296061994624365 -102 10 -3
205 0 1 0 7.433787233694784 3.352174947496417 15.420464347719225 225 -24 -2
161 0 1 0 24.723398352650776 8.608054954379918 14.10467684370568 333 -38 -8
67 0 1 0 14.790791853774264 6.562201026882349 14.130901360189462 -74 13 0
162 0 1 0 18.837904357510595 3.7471129282944533 17.35169491221408 35 -16 -3
177 0 1 0 23.459650550437935 5.217838242132805 17.231756209056677 -78 10 -6
101 0 1 0 16.541225867317465 6.934126425794057 16.08600415094372 -59 4 0
204 0 1 0 13.425324148555559 4.764928007305208 17.062435550663444 148 -20 -4
58 0 1 0 19.115417396096333 5.664476489644497 15.009406016632909 75 -5 -2
240 0 1 0 15.56282978628935 9.578142621610334 15.843265318256233 -162 14 -1
18 0 1 0 22.840955677064322 6.016125060702498 14.541744085636697 -264 28 2
119 0 1 0 25.16158898136505 9.898151801817612 16.751952611083574 -205 21 2
237 0 1 0 9.4659571368519 5.458628013723501 14.702386673586968 -316 39 6
6 0 1 0 11.56039988665018 3.3954970422508737 14.541571479806308 349 -44 0
253 0 1 0 19.153629681994843 17.467494223926458 3.2646640042595614 -73 -1 -1
7 0 1 0 8.481837277802176 13.281688569838643 1.516982414166842 -131 13 5
160 0 1 0 8.729997356858181 11.032498494527205 3.634123140757928 -328 37 4
107 0 1 0 10.835763001739886 9.39296485063103 0.6914379485823468 -206 28 1
4 0 1 0 17.589988272979696 14.90993082106839 3.808848529761144 259 -40 -10
247 0 1 0 15.59342188994805 10.62185869551034 3.2373656295850224 -364 41 4
115 0 1 0 11.178358809867445 12.888537613692861 3.1616150846065056 -216 31 -6
251 0 1 0 21.539636591728943 14.330851432977473 1.4446439567515448 156 -17 1
31 0 1 0 21.738355514941404 16.91535835657544 3.448722090622305 -47 2 0
145 0 1 0 9.973525918967436 15.57966475621516 1.989339207697961 71 -8 1
90 0 1 0 11.998475391108862 16.57202897984805 3.2208120190918113 -44 2 1
102 0 1 0 22.7033094640811 16.88118247460985 0.7280889806202709 -429 45 4
50 0 1 0 22.951649359722133 12.485838402323191 3.186077048236718 -152 12 1
193 0 1 0 13.485787224880472 10.122509348126627 2.1631971978227833 38 -8 5
148 0 1 0 21.06541417584502 11.928228988058509 1.4438662695752682 -292 45 0
209 0 1 0 17.707383270149137 11.035162242954955 0.7311021710841807 369 -51 -5
242 0 1 0 12.773243797726042 14.471723621996915 1.5893723360985206 160 -28 -3
239 0 1 0 8.111933118683954 10.307706248906646 1.006944134592078 99 -24 -1
217 0 1 0 11.058572057313143 9.70801379080451 3.3993119950866473 -77 2 -6
250 0 1 0 15.058981635889543 12.553316358593953 1.3369046827904643 54 -5 -4
202 0 1 0 18.178039032180898 11.88736622588845 3.381317206109277 -5 -1 2
167 0 1 0 6.056271619591572 9.506426610329525 2.7675679163994773 -80 3 1
254 0 1 0 20.032633974307842 13.585762809348616 3.728312625292127 10 2 2
175 0 1 0 19.185966217207856 15.290231681627851 1.5201249687144731 -1 2 2
41 0 1 0 23.585683810349465 14.996490923844334 2.3822774725798963 -287 23 1
150 0 1 0 15.229937495504414 14.978416995579163 2.3692919283230656 -145 18 -1
189 0 1 0 20.570037753152967 10.588480655846823 3.714057717164688 88 -11 1
192 0 1 0 16.492488918300083 17.3243249347341 2.7319033464203564 -59 8 -1
126 0 1 0 13.883189983456415 12.770508253994386 3.5955314188470298 -150 13 -3
66 0 1 0 16.622703035632476 16.205594445600923 5.9157115116524235 -151 24 4
51 0 1 0 14.186896942393691 15.13024461608172 7.273413312977996 -118 7 -5
88 0 1 0 8.237312445468811 9.655961752608576 6.561135812189034 -154 9 0
124 0 1 0 22.596366528258457 10.163741669264775 5.761628142714546 -96 0 0
96 0 1 0 12.564764032240227 14.564302255965329 4.843310794798923 -170 15 3
108 0 1 0 9.38832956306411 15.245150784481137 7.261336907664486 182 -23 -8
100 0 1 0 15.887183764438385 11.091108725680268 5.5377433880642775 97 -2 -3
24 0 1 0 18.235389825506317 13.592489278233158 5.888133989961907 149 -16 -1
158 0 1 0 21.249666814806424 17.385800533103478 7.151729877697803 -185 19 -5
125 0 1 0 15.481591904362546 13.752709064084664 5.442154239000514 -330 45 4
182 0 1 0 8.719192284993026 14.27416605760194 4.325624167976439 76 -9 -5
243 0 1 0 12.790228683671005 12.94940200948847 6.910391677267225 -9 -8 -5
21 0 1 0 22.692989525835472 14.573844900510034 4.8697386731890155 -202 26 1
137 0 1 0 24.149418572583123 12.414407045564777 5.945112072607764 -125 5 0
47 0 1 0 20.943166984149173 12.400079107709315 6.034777418402536 -353 46 11
191 0 1 0 18.830774564714993 10.926723427721717 5.783955820236669 141 -20 -7
76 0 1 0 9.641459254184989 17.045741181680988 4.925959939893168 4 -7 -2
252 0 1 0 10.3124781390965 11.869541018724167 5.532728255230601 44 0 -2
32 0 1 0 14.490171453941176 16.788975057285256 4.254409319877757 30 -8 0
65 0 1 0 11.829083277707197 16.058535071901836 7.1967527278160075 -360 38 9
68 0 1 0 13.25324661979478 10.6414391456564 5.102511135278828 -125 12 5
63 0 1 0 19.79940996508214 15.739415980976453 5.399465926941123 99 -13 0
154 0 1 0 11.311903447274227 9.50368860479831 6.646294816200083 -366 43 1
143 0 1 0 14.132322806119504 17.86690899658899 6.673852532331293 204 -14 -1
168 0 1 0 12.755106732683858 16.99241890171716 9.209294414900713 219 -23 -6
104 0 1 0 13.766586140571315 10.163123676881995 7.999955141565776 -241 18 5
61 0 1 0 15.69247668294596 11.77601385649067 8.036437161282521 -19 1 6
80 0 1 0 15.41437848853276 16.82222550264327 8.922827610266248 -178 17 8
186 0 1 0 16.704861383745552 14.471888427914136 8.006201561815843 -259 26 6
146 0 1 0 25.408006286227476 17.65922742889932 7.717791646595033 -47 -5 3
40 0 1 0 21.356835077248974 16.975479730264638 10.077479392026842 -119 27 1
84 0 1 0 18.45520061130796 16.60410984203559 7.809298930603612 -298 34 4
78 0 1 0 20.726144463339487 10.835302786448057 8.065321274157416 135 -8 3
141 0 1 0 18.308017092590305 9.71574980218327 8.329340295413136 -26 6 5
44 0 1 0 25.360502845510958 13.355912959687851 9.511386441883042 -72 10 4
46 0 1 0 22.77350432453767 12.694653139664466 8.115681690399938 -434 49 4
74 0 1 0 9.943777084222493 12.230465242100749 8.010011090373622 -98 7 2
176 0 1 0 26.58511568505643 16.118631072162138 9.851731936076368 -104 8 -1
52 0 1 0 18.649828922461303 15.291107356778381 10.156389462574888 -79 7 0
174 0 1 0 23.748803855848564 10.586083066584006 9.479769666693121 -270 32 5
33 0 1 0 11.670299638848315 14.347627006151765 9.264267640737433 -40 4 5
14 0 1 0 20.548564610428087 14.753706010496664 8.294324241942164 202 -18 -3
128 0 1 0 11.894669019914067 11.414421041101592 9.453250680022478 -270 32 5
97 0 1 0 14.248106779890792 13.611904706010428 9.575239634877928 -500 59 8
36 0 1 0 19.016931182135586 12.418100907765 9.277428753457817 -290 28 1
103 0 1 0 22.97774523991042 14.70870364948586 9.9291078076776 -195 22 4
222 0 1 0 21.385903470095087 11.145234981489063 10.421836287413822 -286 37 5
85 0 1 0 9.772461374394688 10.280006951509078 9.964341395852601 -190 27 0
184 0 1 0 16.633730937308272 13.366835639232026 10.486021642941875 228 -27 -7
171 0 1 0 23.751093518239337 15.24810931046473 7.338648793689335 -28 5 0
49 0 1 0 22.751771008502928 12.661773020420787 11.91307620785644 333 81 2
110 0 1 0 10.225628892594225 12.170464114069897 11.453873625662517 -84 2 -1
244 0 1 0 15.245314057464833 13.64447891609653 13.21150228787425 -152 20 1
226 0 1 0 13.287224621101004 12.323252084271658 11.852125908155061 -257 32 -4
230 0 1 0 25.07902441510975 14.625879224429259 11.994528173178223 -9 -5 1
144 0 1 0 24.713236768500607 10.456805867013534 11.807376414159414 92 -20 2
166 0 1 0 24.899782032158733 12.014430100235936 13.84214245534226 -182 16 8
256 0 1 0 19.103295030226462 12.326522416766627 12.207930973145002 -272 41 0
23 0 1 0 12.077480151520112 14.681930264183812 11.857909265519186 495 -53 -9
233 0 1 0 17.060902139792205 15.655649198976603 12.715350669172542 230 -18 -8
169 0 1 0 11.358985902106573 11.009220340933645 13.571793902223037 -22 -3 2
91 0 1 0 16.100170763787915 10.482061039079698 13.095004738747859 -14 8 -2
164 0 1 0 13.858895586757532 18.29316384132118 12.411596817022607 -304 31 -1
38 0 1 0 24.285877480705928 18.32050634596343 13.439463158226207 46 -2 0
234 0 1 0 19.90086127209311 15.832373615932903 13.014271561454343 168 -20 -5
215 0 1 0 22.473660491355595 15.176373162085147 12.939716893936884 -16 -1 3
219 0 1 0 20.62651638739588 14.130923381181091 11.06571049563518 68 -9 -8
62 0 1 0 21.931518359530585 17.99372759204239 12.809338773994844 -59 10 -2
228 0 1 0 26.877473223342783 16.536701616969154 12.73686686892224 -407 41 7
138 0 1 0 27.20911986278903 13.706250455536992 13.876370979359297 447 -58 -12
236 0 1 0 24.632744451735533 16.960952027721653 11.034041525625296 -277 32 1
26 0 1 0 28.393574317287715 18.042217247150866 11.11967091773806 130 -12 1
195 0 1 0 16.841404436400055 18.156106976514998 11.52299765229397 95 -11 0
69 0 1 0 20.904177063822488 13.136211737013662 13.733335165192937 -81 17 -1
203 0 1 0 14.642867899890755 15.588920840399576 11.610446795611029 -376 38 4
130 0 1 0 15.032590388458562 10.675278113584673 10.685587261663747 399 64 10
210 0 1 0 17.758940146913197 10.196991586335832 10.88839644779933 -1 -2 0
45 0 1 0 13.693540882083852 12.295110794850332 14.932660908887977 -148 26 -1
105 0 1 0 28.057392024844845 16.874812087872385 16.20555092498535 -17 2 -2
11 0 1 0 26.525060043097305 14.733559920680722 16.357752291854844 251 -28 -6
59 0 1 0 19.93483486131165 17.695947672583742 14.840856031549956 -254 26 1
53 0 1 0 18.35665234834019 13.838621842789884 14.187225317164746 -143 10 2
227 0 1 0 13.092523092431913 13.938478389597032 16.79459363668002 -56 1 0
206 0 1 0 22.272844211688287 11.145042317841588 17.087609917892692 173 -29 -3
224 0 1 0 18.821385280215374 10.371827602701373 14.294734720051856 37 -4 0
163 0 1 0 16.796299867155682 12.20790180992762 15.103190074735556 -30 -1 1
157 0 1 0 15.340866746947702 14.610296356336105 15.612305401493467 -132 23 2
225 0 1 0 22.62833992415495 17.239067897432555 15.059440327947195 -60 -4 5
37 0 1 0 14.955755153703768 16.732111572465605 14.135661989775883 119 -13 -1
64 0 1 0 24.825279538158668 15.952028673558058 14.281265764899134 213 -30 -5
120 0 1 0 21.485698952352877 18.414289035193086 17.130452694130028 -27 3 -4
194 0 1 0 27.219073362569013 11.848996043587547 15.807511480812162 -48 2 -1
248 0 1 0 17.239201387023535 17.94646956922233 14.70344404035713 -11 3 -6
81 0 1 0 18.4009286095809 15.889389966398022 16.142577765241576 59 -2 -2
139 0 1 0 20.905033739062688 15.097477361338989 15.612392836509093 191 -26 -7
127 0 1 0 23.291807816168756 13.346559190310193 15.246250853791635 -17 -7 2
98 0 1 0 12.796924998895847 15.017132207659708 14.541276806822664 35 -3 -1
77 0 1 0 17.5895605324907 13.589371138103312 17.16323066311427 -153 10 0
93 0 1 0 20.01749790646226 12.336367299196729 16.441813909769735 -259 31 3
185 0 1 0 14.212771658860898 16.58205176657932 16.704220314431517 48 -2 2
232 0 1 0 24.21596457458196 18.2208279712725 16.99424374188387 390 74 12
136 0 1 0 22.221799645002555 10.846144090082609 14.129268374646843 43 0 0
155 0 1 0 12.576844925977136 10.458495857728034 16.514404579183534 35 -2 -6
152 0 1 0 15.926470281837494 18.68293908950408 16.839401753959173 97 -18 -3
181 0 1 0 23.732170159949902 15.563291080037114 16.93474601567172 -140 16 -4
235 0 1 0 29.22816226511233 17.905674119409866 14.473416840082074 -2 7 6
94 0 1 0 18.59672204087508 18.735937952196082 17.04113002425715 -160 15 0
132 0 1 0 26.32811957221459 18.536061958718108 15.396385168388363 279 -39 1

Velocities

72 -0.36143723587057897 6.269879812471453 -0.9623932249689977
106 3.2651145960093175 1.1718286150539556 0.5822811514748739
95 5.039466916329383 0.3163684921028165 -1.4457556393476672
73 1.1579396673920244 3.8392487442619045 -3.105532462577265
118 2.2993449883987918 2.7685769723508065 -0.5719695773419975
17 0.6769210401579107 7.060474648075972 8.981318551603605
29 4.752412719595812 0.9661920134304663 0.29675938169935595
147 -3.3556429677297492 -1.5739146335226797 7.945172540877426
187 1.50662866135181 -4.854473939102446 5.342852947331382
241 3.9803311748259387 -10.013843857998918 4.200581447407018
1 -1.205939631983214 1.3618542147012271 1.4745202390649441
35 -1.2570768667423937 -10.141026135205596 -0.7046885203640003
114 0.5807697927589499 -3.604271181872177 2.3867913261212723
123 -1.200444281807377 -7.763493360091036 -9.589457378205802
113 1.9147411855836958 -5.693746245654169 -3.6427564361195706
179 -1.3619842074943391 3.835799174434815 -1.7093300514514804
207 -0.15009213445367023 -5.874373625421319 1.8139903075390995
9 2.5536118270771575 3.4419175923404723 13.040082517601027
112 -4.368720084714571 0.31611393841649005 0.3332465283392898
71 -9.584499583829338 4.474510758931061 0.763857544770443
196 0.01282016099871874 1.9887039011009726 -5.4291667435031234
238 0.4615713392763633 -4.434071705168823 -8.126215161295143
70 7.244042979277948 -0.6923373047219111 -8.035380219962946
30 5.689433995626141 -1.8157030437421326 -4.7276138831821015
48 5.03198265864716 -1.7366711554761234 -0.051066449873951425
42 2.558743236059435 1.5530552871979055 4.049842597291544
131 -4.8870041118727725 1.4624913207754253 -1.4408026551132105
201 2.775934143377181 4.265921448838607 1.8187493387852802
5 5.775254630358256 8.033127066884358 6.068365326783248
245 -0.4342579163256186 0.9169939178291582 -3.22706976750143
89 6.14376758572104 -4.0834473261507 6.388086374507047
212 -9.05073649284059 1.2445122963798878 -1.2190663591104238
3 -1.7680969221943386 1.2700172234722655 1.2517507648357922
129 -6.714914021184711 -1.0478758725698243 -3.4908941297843343
20 3.5028570434964643 4.606044591236896 -2.9840869152879446
197 0.11979807489904035 1.046442442271959 3.216042861235412
173 2.1841432928864175 -6.796904284918576 -10.018970493184696
142 -6.320853397545868 -0.6804299045992036 -6.10880869814751
121 -7.085168407020536 -7.651469299656696 1.332171418297741
8 -2.3384668247612583 -5.163008527048364 6.413322821537576
25 -5.641758015513402 7.358596092979069 4.671856886165431
213 0.2670387212079163 -8.488575717078131 -2.659343869813272
229 -2.4797263353905405 3.7778404968382495 3.576488468781119
56 -4.814024448504053 5.081726605170495 5.5222909701904515
87 0.07104475386718277 -0.5018411665310255 -2.314373506720484
159 2.489777615711988 -7.074893124881357 -1.9870600950746207
153 3.444416801088638 -0.07251733173384092 7.716194913579158
165 -2.4794378222609104 6.270767703826056 4.865872717147439
156 -11.300987140843068 -0.02803856869691565 4.45893234742636
82 -4.187269685736119 -4.2516952018684515 9.681675932187074
57 1.7525253394275517 3.0728432473093688 3.6737808547753086
199 -1.4241984108687085 9.998063892367922 -1.8183395292899016
10 3.8242706450407855 -2.0420546855253043 -3.240520491790111
246 -4.6381569957596005 0.9511817901249441 -1.1380203069929813
16 -1.2117711606515467 5.090299426334561 -2.146270497716998
134 -4.557970097838248 -0.16373490999591822 0.6155869941408295
15 -0.9561081665422927 -0.3686542103109354 -1.5853428024816194
43 1.4707824735367396 10.740514162922402 -1.2102109308208526
218 2.57152502438131 5.576841932840059 2.8348980747941406
111 -13.514919888883524 -4.694827651880381 -1.810956242068769
12 0.5449870437427643 3.1102183988371017 4.732124385514321
216 2.233584651640042 4.131936852754308 -4.086250221315566
83 -10.17804453531752 -17.364718420272677 -4.655346244407082
198 -4.748994605598295 -1.796273077969865 -2.386519049475366
22 -2.287731077241275 5.368671729491887 -0.8806883977653046
223 -2.8231414537705413 0.1397839965063291 8.609658618874636
92 4.341147153677938 -0.06361614163975343 -5.828628880589389
28 0.5400599606806579 2.5584617710367654 -0.4572541459752897
183 -7.116501410514497 3.588016213573717 -4.953947315763379
221 9.874584555595696 3.3844001054617405 -7.093948182838625
249 -12.194567602311254 -1.200321502714162 5.1524482329925885
19 -5.457889145372346 2.4656445172497348 4.134409047725389
208 -0.35104844755198183 2.4510962610739404 4.348681404625906
140 -2.812635165460284 -2.67150440762486 -6.607455229571853
214 2.772981128217266 -6.968383847615114 -7.047751636517035
122 -2.5801904239480815 3.0617822509810457 -3.1087440589936484
151 5.417618713322505 7.929950908647553 -9.189046826023294
54 -2.319914415935444 0.975501441277548 1.1537298734702568
13 0.15563373465939653 1.6560922138162157 -5.931018287057168
231 -4.671848689526417 -5.794705604359985 -9.311500567161456
170 -2.3222221347835563 5.252055483615525 0.1872935640208908
2 -3.198599081396485 1.1338753313908105 -5.182390439055974
75 3.0738916404029646 -4.92545155014811 0.5945521919809511
86 4.523154858934831 -2.0097186887237104 1.124459455240431
39 4.350879100845485 -3.389232778526005 5.116777081848468
180 1.607776789172791 -1.8661585879230862 0.5161407464851142
200 3.8443424702837095 7.422029595346065 -1.2799962510786742
99 3.178753248032713 -2.735047569103247 3.1328281584556796
211 -3.9521464353041207 -2.17982784759265 8.76086823988576
190 -6.162423495736734 9.193096394948629 -7.944914769539846
79 -0.32528641053180923 5.709807224613595 0.10293313183834842
34 -2.887068919191469 -1.4882404584056397 -0.8088314151793901
27 -0.918193161749956 -3.6199884745122883 4.872486552368404
117 0.332929406701707 3.888297682195589 9.560658906303534
178 3.2213471383369776 -0.4004498024155787 2.485904048078368
133 13.034537648785587 -0.08885439338631582 1.8795529776868662
55 -5.850340970313163 3.028717649052328 6.717456242596148
109 -5.484882420190973 -2.27758250350768 7.205083073603662
149 -3.9669631519077586 1.4110071807602713 7.5161192507434205
188 16.12910054789016 0.009169497408714512 -8.691659912172769
135 1.4288196753907891 -2.034113141633516 5.742059940614842
172 -1.893194381938023 -9.427462188200348 -2.990156392469858
60 -4.0570951721179505 0.4636779952650349 3.3624489917354485
116 3.784972069914847 6.412632749820466 1.3523837240051872
220 -9.010119466035816 -5.488978355861837 -2.95403256792786
255 3.4014725721116656 3.0157528893515764 -1.3410863672355335
205 -7.049272270151031 -0.927984739034796 1.8786683804217978
161 -5.3750367206959915 0.9323234053953333 -5.011799017392661
67 2.572256156428481 2.1335640103618867 -0.9083521987412235
162 -1.1357046533831026 1.5587183531624527 9.559219161594623
177 7.222629298136272 -0.28798467525273036 7.0468551972006095
101 0.6580151029685561 -2.061660663410618 3.4789402775929226
204 -0.012279297846828047 -3.311276822000918 0.3551024176839998
58 3.7144131901965998 2.300975880705358 -1.0416812736070793
240 5.663209926428862 -5.39465074669225 -6.2835157074294
18 -2.0160618409022186 8.080758261639478 -5.391372979565902
119 1.3711315267456332 -1.1744516991393135 1.3677926616393081
237 -6.476971534714047 -1.2791622906076743 8.34613043741563
6 11.695035834920168 -0.36003228487082295 3.7468998131285707
253 0.22748345042438622 -1.1203447011340508 -1.7805379794360898
7 0.7379979199951113 -0.6896925317109927 7.221441633558736
160 -4.534235889600542 -1.1912333074467445 -7.058747942732229
107 -0.5900473736620342 0.8254753061365945 -1.8248000703042182
4 11.498269000501644 4.543309988312189 0.12691552709763884
247 -2.253680676448543 0.449292545207144 -0.7813341052206031
115 -3.0957921515392406 0.09599508992423311 7.571888418655632
251 -3.8307464219823513 2.0394106234494673 1.2627209602174696
31 7.0621229037689615 -4.3607920096526005 -8.144115815529208
145 -1.688555432549575 -1.71755181869035 -0.9806491106466693
90 -0.7093708712313679 -2.7087901272685175 2.9501808170985537
102 -6.663576061922984 -4.090629822670199 -8.662569677576062
50 2.652492063901697 -0.4303858097516382 6.251495875456341
193 4.758834637956593 -0.7312579858189856 -6.026340811016825
148 3.6334986553619206 0.563724755484451 -2.6518056001651655
209 -0.571932344095677 10.859144368639228 -0.4341758887753992
242 -1.122779003386789 5.692172060271417 -3.561628704334778
239 -1.7986542210993544 -6.634807964028728 -2.7388196719212203
217 2.8127081467152077 -3.234539007294373 -4.628350902579672
250 -5.93596687720713 5.778165642221636 -4.667482424308368
202 -3.142323806440544 3.4464138527391426 5.083050464442658
167 -5.963387615661927 -2.3574264340577225 1.9222842184175148
254 5.120296087788758 10.890859645764454 -8.626690830821946
175 6.8143207811113875 6.445890625981585 -3.3767079814926295
41 7.599299176742493 -3.2372203321138584 0.6550831060374657
150 12.021787252914942 -2.572428693838406 -3.273452341334367
189 8.84587302054369 0.6245511874585976 2.2209943021029006
192 -3.2270754633815093 -3.967964668591282 -2.963447841362477
126 5.874785570743549 -1.2578569135591453 -10.412300119005117
66 0.5966939170676082 -7.10807369503055 3.4069431474682608
51 4.011502688086176 -1.547491257920062 2.158486086922268
88 -4.665312455988788 2.2595995542552436 -0.7874863429102801
124 8.720571253269163 -1.8531787106947915 -1.9925218791801886
96 5.088169611499438 -2.866683540671073 4.128830484843569
108 -3.9734665868581254 -5.24838911502017 2.35069846148898
100 0.6799036906516874 -3.3585291214611304 2.6680294408618956
24 -5.026180955572259 -6.562604307932202 3.0696412227773635
158 -1.6035831860932568 -12.307154063481603 -2.573454002683436
125 -4.505704476129172 -4.605372780605554 -4.023103114217232
182 -4.86867892559513 -5.4587212588672624 3.0913934040297373
243 -4.682135304030653 1.3556101481103748 0.13977051574027904
21 3.540530426302646 5.2531104429524165 -0.46553033398419763
137 7.3058997061743955 -11.197291573684636 10.08856215957623
47 0.012060055812003818 7.4378513935368975 3.8299231960329543
191 0.7137459923769357 3.249561164898395 -2.638501306034763
76 3.1350590702370744 0.9756856802970069 -7.964913194839415
252 -0.18561929370982858 4.886751523417062 5.435270539789652
32 8.641471752208686 -1.0003969426051096 1.6190619526450225
65 -3.795769724526343 -2.6348980612795905 -2.451726419419659
68 8.624229216040687 0.36415188017958183 2.0149991978472515
63 -0.24830780706293168 -0.5818800460367575 3.027142448865242
154 6.253264489036474 1.7049965723070977 -4.564383336225756
143 -3.8445942890921105 -6.623371126527417 0.8027128666720003
168 -6.799872593986779 2.0244300922097147 -8.00697194397748