LAMMPS data file via write_data, version 27 Oct 2021, timestep = 4080000

256 atoms
1 atom types

0.7052538031241493 17.29474619686885 xlo xhi
0.7052538031241493 17.29474619686885 ylo yhi
0.7052538031241493 17.29474619686885 zlo zhi
3.9389103376090397 4.172422848839622 -1.922628490278242 xy xz yz

Masses

1 26.98154

Atoms # full

176 0 1 0 16.793437622796596 0.8560302517808349 2.951077735985443 16 3 -3
179 0 1 0 11.519453466644638 4.592013904759595 0.9442814867539943 -3 -2 -2
200 0 1 0 9.010701211728554 6.126839680740862 2.5456806424551877 -1 0 0
67 0 1 0 9.32510377155935 3.2132117337698376 1.645015521727415 7 -1 0
43 0 1 0 4.2659202531412665 7.537168905447664 2.3931907822214065 -4 0 1
188 0 1 0 14.72510343909424 1.971425492629865 1.8087500569288326 25 8 1
207 0 1 0 9.86130057040245 1.2876575717319192 3.602775840249456 -5 1 -1
255 0 1 0 11.662624470246394 7.70117042532533 2.126700496364424 -19 -4 2
39 0 1 0 16.580240522305587 6.492534491023332 2.1469151084406555 -22 -2 2
219 0 1 0 7.303621505201347 4.252409355699816 3.124502039699445 26 3 -3
8 0 1 0 2.2483772726728772 2.7735344942105447 2.5442960764740947 -3 -2 -1
174 0 1 0 14.127419998982841 7.164229887887732 3.5431574911057715 5 2 -1
254 0 1 0 14.177578162859204 4.516675773381345 2.5792068439899953 13 4 -2
71 0 1 0 7.244821791895838 1.4826821552845582 2.344037609346529 -8 -4 -2
135 0 1 0 4.65130938198857 4.811386899315568 1.7164959172294592 -1 -9 -6
193 0 1 0 12.13218234029465 2.9896973524306945 3.2699650772757125 5 0 0
233 0 1 0 18.816851338564824 5.533723723866345 3.373182578378416 -18 -2 3
172 0 1 0 4.923664576902111 2.6068114570041567 3.779318170662969 -12 -2 0
122 0 1 0 6.590389761347359 6.505777961863054 1.0209949565208531 -32 -6 2
245 0 1 0 16.645396311852053 3.557776654159345 1.20129987071456 -48 -10 4
250 0 1 0 16.660153591504837 3.9667252632675476 3.961297205776773 15 4 -2
31 0 1 0 4.648020269883331 1.8139993879665963 1.0000576921389888 -1 4 1
236 0 1 0 6.625032902450741 7.265298477479001 3.9147866110490988 22 8 -1
218 0 1 0 9.26064930662247 8.57971107088277 3.7133413679541323 -19 -3 2
178 0 1 0 11.963851297706803 5.602615332168138 3.58671155628862 2 -2 -4
2 0 1 0 9.737837547612994 0.6649620274411726 1.2004066982395014 21 10 2
163 0 1 0 12.332564954296293 0.7766746391158476 5.122499033615847 22 6 0
159 0 1 0 4.848203756827413 5.016453184973931 4.462425830468491 -11 6 6
147 0 1 0 9.430285799452209 6.707295350583687 5.4227357923968205 8 1 -1
209 0 1 0 12.309241791099288 3.603947493335053 5.91400974499873 4 2 2
105 0 1 0 14.415756256293514 2.2324958138111795 4.665729012389468 -4 -1 -1
95 0 1 0 12.153106521067544 6.487162550504427 6.8115687252355395 27 -6 -6
51 0 1 0 4.961561065840291 3.296374992110065 6.564621849571437 23 6 0
216 0 1 0 2.6685779610423124 0.7007546943470873 4.360511047666318 52 15 0
132 0 1 0 16.681325710519666 6.508406479937247 4.95957766075407 -5 -3 0
228 0 1 0 17.146972609573155 4.503709054166718 6.7744598234460645 -2 2 0
49 0 1 0 2.7622065570413317 3.4097115900847506 5.193493433603991 7 -1 -2
62 0 1 0 7.398295610186758 2.315816780337572 5.2088908856312734 -16 -5 -1
89 0 1 0 19.369679286202462 6.23992214326737 6.087978086165842 12 4 -1
20 0 1 0 7.4224199998782225 7.635721566062696 6.617749723574809 -27 -5 1
54 0 1 0 11.943024434235065 8.363307673680584 4.757726788798572 7 -5 -4
214 0 1 0 14.446980731692438 4.869616015549353 5.40508030814226 19 2 -4
127 0 1 0 5.522293035232758 0.2995500884447586 5.884302358767674 6 1 -1
19 0 1 0 10.158478410322267 1.6110360210425458 6.545871055085828 -9 2 1
76 0 1 0 17.219693241143197 1.5151476654070808 6.033031009102839 3 -4 -2
253 0 1 0 7.10259641358284 5.00950076156067 6.01340625483563 -5 -3 -1
215 0 1 0 10.045239201742106 3.9263426207792342 4.411561226477072 -7 5 4
24 0 1 0 7.782428632663397 -0.015001756857975002 6.93077518842696 -23 -5 3
244 0 1 0 15.085237241880053 2.491818323036445 7.323594038508699 -16 7 6
22 0 1 0 10.177089631112159 4.634975015960276 7.249432971338814 -22 -4 3
37 0 1 0 17.401202153080476 2.5993656629721293 8.657529843947472 12 5 1
60 0 1 0 19.973126413557758 2.0667906677662433 10.103692235651467 -15 -4 -1
182 0 1 0 12.632232783130812 1.4006471506444942 7.827165490127493 -9 -8 -2
84 0 1 0 8.25279264857251 2.7788763846220514 8.18163921166377 15 3 0
166 0 1 0 12.588399326779523 6.619464658761787 9.485844742415269 20 10 3
226 0 1 0 15.169292800902408 0.6393815585575375 9.371399975607602 -37 -3 3
91 0 1 0 19.425968546425672 4.154707207872388 7.80407800398053 7 3 0
119 0 1 0 14.827019823532236 5.424287992789254 8.07530858032754 -35 -5 5
256 0 1 0 9.709472946759744 7.106238219540362 8.277629001621687 25 6 -2
227 0 1 0 17.22301312720935 5.202060335867349 9.615310246301746 -4 -2 -1
63 0 1 0 5.575708641812469 3.7761752667547377 9.264404972621564 -24 -1 4
161 0 1 0 12.667922738061426 4.179309110946505 8.701357263514868 -22 -2 1
41 0 1 0 5.591778914294764 1.3133906749894484 8.584839263707174 -32 -9 0
15 0 1 0 7.852880831333973 5.590639656895462 8.718864327563882 -20 -7 1
160 0 1 0 14.776950942390457 3.6201404955860705 10.17122358887328 10 8 2
50 0 1 0 7.949609782864663 0.827840639364948 9.931738751330718 13 -5 -5
120 0 1 0 10.587131966228014 2.6471014241343203 9.596062911554197 -60 -11 4
185 0 1 0 10.250803479446953 5.2447634592282215 10.192720927962807 -8 7 5
246 0 1 0 19.57539839517588 6.887101798127002 9.149885627817877 4 3 4
203 0 1 0 5.425665408054893 6.577539980618957 10.340665614264243 -16 -7 -3
112 0 1 0 10.437882548216528 -0.0927426707022424 8.765553985622427 -13 -1 1
77 0 1 0 17.085028829469273 7.184681022244734 7.762734598949884 2 -2 -1
206 0 1 0 12.811790547633821 2.024533112952141 10.65082998593377 21 4 -2
83 0 1 0 5.089908268948732 6.070901614038278 7.507635612189866 2 9 3
186 0 1 0 3.1356346284124994 1.4239285433974502 7.400463513292388 32 6 -2
129 0 1 0 12.872373500956604 5.013480449736509 11.586395047909898 -14 -3 1
90 0 1 0 8.370465835155231 1.3278757472137055 12.665239191124867 -6 -8 -3
195 0 1 0 17.64742003906082 3.1376775539440143 11.521358679530472 -20 -5 1
141 0 1 0 10.82197611371202 0.3455178790986656 11.312240515155326 29 0 -4
45 0 1 0 19.91323408722826 -0.13009080704252785 12.224354324113714 -14 -8 -4
117 0 1 0 10.202963052902595 5.910497872767593 12.789750148815154 17 4 -1
198 0 1 0 22.286224284807084 7.491068846241449 12.995566262445907 11 -4 -3
148 0 1 0 8.328611179085026 3.4612537108912065 10.861708303042324 11 1 -2
21 0 1 0 6.330650693042504 -0.48693036750123286 13.280873613778027 -15 -6 0
126 0 1 0 20.003817898818312 3.080224710357756 13.048806205069921 19 10 1
114 0 1 0 18.072041706695785 1.3331059098292999 13.793800903336539 -2 2 2
237 0 1 0 17.646723696518563 6.374745341303441 12.260810244685237 4 -4 -4
14 0 1 0 5.655181313308004 4.6606277866668036 11.978009230575015 -14 -4 -1
12 0 1 0 15.39425601089465 4.710466061386172 12.631090762144387 -3 -7 -4
25 0 1 0 10.431082921264315 2.867680682348561 12.363764655326978 12 4 -1
73 0 1 0 15.08438537033686 7.185844859028956 13.690667727547513 -11 -7 -3
175 0 1 0 7.85387650321926 6.2422574826307065 11.375008817978438 5 1 0
26 0 1 0 5.419933612904272 1.836422108463487 11.702487058125516 -24 0 4
134 0 1 0 15.251912976965317 1.8174291904417292 12.149911185409504 0 0 0
180 0 1 0 13.181637782204541 0.10140189573249359 12.59551724899915 -3 -2 -2
5 0 1 0 8.134866675362257 4.039775939258472 13.533990326457706 -3 0 -1
146 0 1 0 13.099826508120875 2.9005342074398786 13.629992302992193 4 -1 -3
156 0 1 0 20.21185905606844 5.9252860871275645 13.578407665643084 -6 -1 0
247 0 1 0 15.030835944095566 6.544295029766234 10.920115394173948 2 -4 -3
16 0 1 0 19.708330661828796 4.783006214680167 10.757834866873479 -18 -6 2
162 0 1 0 17.45892058578989 0.434817123586294 10.843191354013188 15 11 2
33 0 1 0 20.261667187668664 6.3556650555706105 16.525060058172237 7 -2 -2
86 0 1 0 18.209099756456624 1.6979582538577591 16.41111907113053 -65 -16 3
108 0 1 0 13.517810208545857 0.9183725876890521 15.599850956605001 1 -3 -2
7 0 1 0 10.716481744417592 3.8942179144139377 14.895205908931011 19 10 3
168 0 1 0 5.884633258344335 5.230327437315436 14.958970921813615 22 4 -1
13 0 1 0 13.134368251344462 3.723804348232748 16.310291141822738 -9 -4 -4
202 0 1 0 11.14038053096333 0.7759520694882602 14.202373250427042 6 -2 -1
239 0 1 0 10.45063928344903 6.924380647280022 15.437955720196046 16 1 -3
55 0 1 0 6.28350316581787 2.6789859555937534 14.578305724119021 -7 0 0
220 0 1 0 6.684976578223201 0.3358533280403493 15.988420759002073 22 9 2
144 0 1 0 15.653899442931769 2.6844286639738915 14.77744670477614 12 9 3
116 0 1 0 8.507423945487105 4.8036511637362675 16.112769120641147 -5 -1 -3
11 0 1 0 8.765761387338204 1.9472786365002863 15.274627841818974 -17 -5 0
65 0 1 0 16.171354616100835 0.11135990488890868 16.899910810984252 14 4 -3
107 0 1 0 20.47240049454222 3.7285561302227777 15.656030291107099 5 1 -1
30 0 1 0 6.316640651683317 2.9422816703084926 17.27734230654911 -3 1 0
145 0 1 0 20.5984954751927 0.7824594775417999 14.71716197475032 5 2 0
10 0 1 0 15.519174924480815 5.496274048885473 15.874003371512337 3 3 0
181 0 1 0 17.908442238896555 6.9159179762250025 15.05223365463649 -10 1 1
48 0 1 0 12.814306861363207 5.739417962480591 14.152229799832556 51 10 -4
184 0 1 0 11.143439976267382 1.5838806862247559 16.675153262347777 -16 2 3
164 0 1 0 7.91792879313965 6.763977588982428 14.39487809009226 -21 -6 -1
231 0 1 0 8.950542815577638 -0.8062102114207388 14.90830996290549 7 6 0
222 0 1 0 15.950979764100577 -0.580734080996471 14.016362916079057 -19 -7 0
100 0 1 0 17.898366224388333 4.300355860458759 14.283151744519142 -15 -5 2
56 0 1 0 20.736002766182757 -1.0197541505657786 16.853917899515793 -19 -3 2
110 0 1 0 18.090325880536767 4.540980494554341 17.22521257607864 0 -7 -2
78 0 1 0 13.473981825804932 6.174656859755208 17.2282813679586 10 -4 -4
18 0 1 0 13.736030095285008 12.267724910768457 1.8368987605746268 5 -4 -3
103 0 1 0 6.544207715679272 9.231126294924056 1.9727574800445147 -35 -9 1
57 0 1 0 9.162641809777494 13.979364514088262 2.2954416211019986 8 0 -1
85 0 1 0 9.092330859993769 16.394912796069235 3.1672656937188446 31 9 0
157 0 1 0 16.40431308377323 9.102809004768776 2.638511548776842 33 4 -5
121 0 1 0 16.014027008552773 13.739248178162065 1.4935264432242445 3 -5 -3
28 0 1 0 11.512001231509577 13.317242552918252 3.491144027646851 24 -2 -3
42 0 1 0 16.282416493355292 11.788146440114913 3.477032770520003 -20 1 4
133 0 1 0 8.938174700189467 11.236813814644599 1.5936869914795353 17 -2 -2
124 0 1 0 6.76551086593883 12.081593232026334 2.7999422128280753 -3 2 3
74 0 1 0 20.752788560267177 15.11161532396711 1.9770170767720538 6 -1 -1
153 0 1 0 10.996117459139292 15.622832402036234 1.589241483203236 -44 -6 3
44 0 1 0 13.97617952791427 9.188739371795522 1.3756185156386564 -10 -11 -5
238 0 1 0 14.052375228563939 15.081771085969752 2.7142669738548633 -45 -9 3
104 0 1 0 16.321354710225236 16.866556867004043 2.3452994847306243 11 3 -1
251 0 1 0 18.654941636028177 13.191617207010735 2.5808002325717254 7 0 1
191 0 1 0 3.632176636049131 12.19545733222615 0.9510405979081522 8 -4 -2
118 0 1 0 11.253464174091846 10.172252610983493 2.7905981870576704 -14 -6 0
199 0 1 0 6.476655458749863 16.942209297828008 1.472944570980712 13 8 1
167 0 1 0 6.447330263383479 14.832109280055636 3.4171652629362486 10 0 -1
252 0 1 0 6.366882570651892 14.008611773866168 0.7267280864374867 -31 0 7
115 0 1 0 18.8325355679517 13.723311828106098 5.472873532220475 -18 -2 2
136 0 1 0 11.809967115179921 11.151575561182744 5.340858267974725 6 2 -1
213 0 1 0 8.94158574205305 14.277381378306819 4.837465757160009 5 2 2
35 0 1 0 14.306936176845353 10.901891472987948 6.6940956206047195 -7 2 0
59 0 1 0 9.28908204565948 12.181513737204689 6.7684321359023745 22 10 2
102 0 1 0 6.852050920293905 12.695248445908662 5.549508310781243 1 1 2
196 0 1 0 16.80063562916019 9.847848537478425 5.3966133973630965 -12 3 2
23 0 1 0 14.080160473521977 13.00911391980028 4.679081692285131 -1 -3 -1
3 0 1 0 9.817919737188863 9.22324652610829 6.12620165112736 9 2 -1
187 0 1 0 6.978613259311189 15.177492701943194 6.528434027201213 -9 -5 -1
205 0 1 0 11.670174140070225 14.031949956536348 6.201282012674113 28 2 -3
208 0 1 0 20.92365381241369 15.598144753337834 4.893282482728159 7 5 3
169 0 1 0 16.436936712712104 15.203237582624226 7.171474666116719 -4 -1 -1
223 0 1 0 16.464029022183624 12.539274317790492 6.4227247118377555 -10 -2 1
232 0 1 0 9.23958362560839 11.41177243306231 4.042571670804865 -13 -1 1
106 0 1 0 7.160468405158438 9.913470807314344 5.101433067780921 -19 -9 -1
197 0 1 0 14.307760619781986 15.567076064446947 5.657986211515988 13 0 -3
66 0 1 0 21.1804502513545 13.624669659094355 6.884819280333967 -6 -6 -2
189 0 1 0 16.476054333689028 14.570241343199845 4.206827676323879 4 2 3
46 0 1 0 14.579381865605617 8.35745029338436 6.427327818299216 -14 3 3
99 0 1 0 11.729813889472052 16.098458682364974 4.194565980685129 -2 -3 0
93 0 1 0 13.889499210012994 10.100984942426498 4.084542479402466 49 4 -5
241 0 1 0 18.647744421006216 16.412051276266894 6.388267715597358 -23 -4 1
75 0 1 0 16.646189056602427 10.210000329439872 8.185729594497989 -25 -8 0
177 0 1 0 14.999128245429528 8.303012774395249 8.92731173681693 14 7 2
123 0 1 0 16.9325094317704 15.633235965874096 9.978302995123082 15 -1 -2
183 0 1 0 21.702215275651355 14.269290988862533 9.885028558659519 -11 -2 1
69 0 1 0 21.40351211917502 11.675384011869026 8.928643981248772 21 11 3
101 0 1 0 21.554847251502224 16.242571947040183 7.949480608328464 -19 -3 0
72 0 1 0 9.655223098957432 14.875476584178704 7.910310625514151 -2 2 0
234 0 1 0 12.059230126784195 11.881433001880813 8.143797494261138 -5 2 2
53 0 1 0 16.888202489118896 12.863892201499453 9.018302516926106 -13 -3 1
194 0 1 0 7.265503372609855 13.391469572669793 8.398466712322076 8 1 1
212 0 1 0 19.594864597217324 9.866527936373195 9.073917060481929 26 9 1
47 0 1 0 14.62382725445582 11.576427396058987 9.464522601506907 4 -6 -5
113 0 1 0 18.912158375457345 14.470688678281597 8.389308390286327 12 2 -1
170 0 1 0 10.099898844890477 9.94733180364208 8.858830277059836 32 6 -2
192 0 1 0 9.847169563898197 12.746071615483645 9.668204141017103 6 3 2
230 0 1 0 17.637644714095174 8.367223484391374 10.360976446956277 15 1 -2
152 0 1 0 12.039588937551548 14.595685581303206 9.146275968543181 3 -3 -2
142 0 1 0 14.196631642289711 13.47425811940086 7.578349194244674 28 8 1
1 0 1 0 5.241742241048459 8.687096532606837 8.19141247470775 -17 -10 -3
29 0 1 0 19.15607489425811 12.682740386865818 10.454840026705618 -3 -3 -3
190 0 1 0 12.607885470525519 9.695305885158815 10.15615990796568 -6 0 0
27 0 1 0 7.4902808573568755 11.286383383876215 10.243640601225792 -18 -5 -1
64 0 1 0 7.265995696783879 10.331041627666393 7.772919510437917 -12 -6 -1
4 0 1 0 7.296845912326951 15.95860366639578 9.250010480917492 -2 -4 -2
149 0 1 0 7.664534978302294 8.468351448215229 9.869365498400485 -7 2 3
87 0 1 0 12.306081105383527 8.98941274164582 7.581703138449257 19 8 0
225 0 1 0 9.716105261813896 15.85229446543202 10.481222286162993 6 5 3
34 0 1 0 14.378372298632133 14.52189729930941 10.209594367056772 -1 -2 -4
165 0 1 0 18.714063255031675 11.794600641698926 7.369906002621275 6 -3 -3
137 0 1 0 17.202173772267997 11.195247304333689 11.086242588777083 -21 -6 3
38 0 1 0 10.551011841048256 8.55408997358342 13.577017236601316 -35 -4 3
32 0 1 0 16.906957174605907 13.833282925968861 11.717396272933279 -23 -8 -1
111 0 1 0 19.550216947092956 10.421691653292369 12.215687505856692 -11 0 1
210 0 1 0 7.689363123652205 13.754225711061347 11.182988998478525 12 -10 -8
9 0 1 0 21.74536901145111 12.248762242673264 11.807950709099956 -13 -3 1
58 0 1 0 15.058104232045304 14.747640033220852 13.344230098180715 37 7 -3
154 0 1 0 10.279002064711706 13.152183417771207 12.585427891902729 -10 -2 1
249 0 1 0 12.53995126816236 15.350840951880288 12.11895868509027 -2 7 2
130 0 1 0 10.247056371272638 10.659024776060624 11.809505509998385 -30 0 5
40 0 1 0 14.838486584838783 12.051555343198592 12.063881086231163 -16 -2 4
224 0 1 0 17.28954521913265 9.014199492524087 12.882706634757172 31 4 -2
143 0 1 0 19.3015915686238 15.508995925101324 11.471081032943342 -12 -8 -2
61 0 1 0 19.394832538175862 13.390313222610464 12.930262303344389 22 0 -5
6 0 1 0 7.69964307373464 8.991016420666181 12.485721601164107 -24 -1 2
88 0 1 0 14.934396828675318 9.219056554376893 11.494954773142421 22 4 -1
109 0 1 0 7.79976220027583 11.779546100007247 13.201541337044327 -5 -5 0
128 0 1 0 21.846945019944826 14.920299221529275 12.743195716077459 -23 -2 2
243 0 1 0 12.822191063035346 9.959041204524455 13.244034594162102 3 0 -1
151 0 1 0 12.747018744695508 7.722393226266972 11.964944511785916 2 2 -1
82 0 1 0 22.04878486264031 9.751924948526787 10.842544329817882 1 5 2
221 0 1 0 12.468475343401202 12.389775078089126 11.070559434017905 9 7 -1
201 0 1 0 7.999154609522327 14.436311061625387 13.955386909483586 3 -1 0
81 0 1 0 17.481522292204936 11.786843687610032 13.892702693079258 -38 -2 6
248 0 1 0 22.01297524514021 10.210285559502367 13.661588762519834 16 2 -3
158 0 1 0 10.253179471697079 8.150375733033249 11.04029696208457 -30 -4 2
155 0 1 0 20.035062737705317 7.972412591867497 11.496703354360367 25 9 2
240 0 1 0 17.87994888141295 9.627250222213645 15.893837577178761 6 8 2
211 0 1 0 8.113211891069843 9.646845504550669 15.155666801477114 37 6 -3
79 0 1 0 13.05421465321899 11.066881871003629 15.999445664935113 -16 -10 -3
68 0 1 0 22.196463596644982 13.17301556770092 14.422593602651048 -4 7 5
173 0 1 0 19.83254966374154 11.447369720737871 15.13707887171461 -16 0 3
94 0 1 0 15.322451135869214 8.220925450864463 16.69899761550319 -33 -6 3
242 0 1 0 8.387282047765769 12.300117731103002 15.798307660678974 -15 0 0
140 0 1 0 15.337307481394475 10.08905582370121 14.408033325479039 21 8 2
229 0 1 0 10.468971109920599 9.398276928220799 16.439032999423752 23 11 0
204 0 1 0 20.145334265051567 13.86176467447459 16.157844971634383 6 -5 -3
70 0 1 0 17.59525780699579 12.564110998757243 16.730347748616175 4 -2 -1
96 0 1 0 15.06903016870543 12.810520074168771 15.370045278171624 12 6 2
138 0 1 0 10.389389622817204 11.207586302871482 14.438727616759785 -21 1 1
125 0 1 0 20.06196297575061 8.52490666016239 14.263280504807408 -7 8 5
36 0 1 0 10.662174398547547 13.876133974304572 15.090792676783446 -35 -9 0
92 0 1 0 13.158141123977968 8.259066394179788 15.386500782105323 -3 7 3
17 0 1 0 12.555045338257683 13.634221852318177 16.671394791963323 1 8 2
150 0 1 0 17.625300385718994 14.463162547519302 14.821933147698141 -3 2 0
171 0 1 0 22.21969249185441 10.824316442380615 16.233884270967756 12 0 -3
131 0 1 0 22.354725029009863 8.108586096687894 15.75014471219639 -14 1 2
217 0 1 0 20.252648099543087 9.345794246673202 17.049406486808408 -20 -6 0
98 0 1 0 15.326621220432271 10.860950462202076 17.130223879360734 8 1 2
97 0 1 0 22.538332968035753 15.584582804156213 15.277046596107516 42 1 -6
52 0 1 0 15.13527079359848 15.092333618010487 16.161373236975 15 8 0
235 0 1 0 8.21258565197552 7.5173804135342674 17.004003619105504 -3 3 2
139 0 1 0 22.56334053011019 13.683077039587321 17.24169327863047 -10 6 3
80 0 1 0 12.776458979769544 13.105503341023148 14.010462086813506 4 8 3

Velocities

176 -1.533477059572032 6.077440266684471 3.1956405710180675
179 -0.663727706112214 5.94303990121584 1.7786745632321823
200 3.7281907929669384 -3.442017989376087 -6.027246071790811
67 7.666871666663117 -1.18931470057939 3.1594582736489465
43 -2.7330267656074203 5.76955862241367 2.2435289339316413
188 0.014459161365093011 8.206370210925337 0.6131622558229981
207 8.003850041552425 -3.7673687234110966 2.419995581302582
255 -4.384166383466377 1.3014691674173502 11.399760095739701
39 -1.4971053244155919 -5.929093579953915 2.0266002648861745
219 -6.638882081482305 4.543788183917265 3.473495053234587
8 -2.4599650401260034 7.1944844835189325 -6.374763000097541
174 1.0820071985833335 -8.44804172800195 -6.362004503662126
254 5.718943720951059 -5.186014178856185 9.462947462715917
71 -1.478910145856392 3.6244196364634313 -1.3311624174367913
135 3.0657840143214 -3.650723232453524 4.985328342671502
193 3.184938536489994 0.7460574992938528 6.903790399925906
233 -1.8061578076257179 -2.644714488153417 -2.170475134202184
172 9.757139787007127 1.4155248334484867 7.52651135092976
122 1.3175684427687773 -8.200161467065096 7.556692369463444
245 0.741266216279183 3.2793806631658877 -2.9377277675847964
250 3.922925736784602 4.9681473167781 2.6798042305508587
31 2.184305630256455 -0.8714962670773192 3.5904701133989865
236 3.431703355033055 -0.18041408681344015 7.527042939048901
218 -4.183427305617384 -3.6249431483419734 -1.132265754524916
178 0.288204381968751 -0.26224802839644856 -6.0437887988302155
2 -4.140117498079152 -0.048930948378084094 4.804236408361965
163 -3.3110966767214443 0.7054293770234215 3.9342911954030835
159 -3.218275296918428 -1.6880461378334752 0.2898759942536181
147 11.347893128532485 -4.60574626973828 -1.091687289611627
209 -5.5681938721659545 6.970031052148376 -5.339160300365714
105 0.4759042803259518 -6.969496092240255 1.3181226142035871
95 -2.9905173743815627 2.062564656915886 -5.743566379217471
51 6.83926292772789 0.8177337936548145 -0.7825061481096219
216 -1.5821664388518848 4.639861701157537 -1.108197023881817
132 4.818614301574585 -5.344928828065751 2.430092141865254
228 2.311337232745217 6.006475455610591 0.09532486202372517
49 4.963238765538811 -6.419806199584761 -10.825513842350123
62 -7.925591276318566 -16.352873729601964 -4.145657564099708
89 -0.8123255366216988 5.418197422969589 0.5316234025552908
20 -5.2026572671756215 -9.153807856544791 -6.220004466431648
54 -6.017237043801085 8.030565930230814 -0.9802559369386792
214 -1.0819488679478864 -0.8482526539839907 3.7389359450523596
127 -6.381114448692704 1.7983449718099997 -5.109095531585475
19 2.9165422296244445 -0.24476599027497936 -9.742550028819997
76 1.5716387630313997 -12.014997325044558 -0.18985839013366157
253 4.060387361083277 -7.461287678328067 -5.275605622697104
215 -0.7050667694116356 3.4444895425081525 -0.15266804406079365
24 2.595493545964907 4.5914759121842295 -0.5097707990085467
244 -3.24455388610011 -4.72025903041486 -1.7551042893643012
22 -8.439505255040231 -2.507608666704648 -4.306179001282506
37 -6.8761439098525345 -7.95139895329746 -4.948984457310945
60 7.871621544673722 5.687195292332769 -8.31955478792168
182 -11.94661766226314 -1.9313959368104696 -0.8201604948499814
84 1.9577518100664186 -1.9102036824000181 -1.993295119833515
166 -2.453253615028471 2.244809661282518 -5.7480000639892594
226 -0.4111410938070483 4.380554979707657 -2.610702020656191
91 0.029570689155873367 -1.3948091467852524 -6.093036916407215
119 -5.0067851517539514 -4.816074281164477 7.8717241499793404
256 0.053259273339531725 7.334820558367475 6.440668253319488
227 2.89371469929723 1.0781319942476253 -8.731193294205996
63 -5.567274275610379 3.2254832379493523 3.5516939675734895
161 7.536581627554551 5.937365488235968 4.138651128120595
41 4.01610497614861 -3.3055594326508717 5.054936186906463
15 2.230189132350777 3.8404687435519365 -4.645593802381584
160 -1.1608829961881713 4.323512058169765 4.870102510235686
50 -0.25246110785845466 1.6074198690785297 -6.612652128016181
120 1.7500156637177489 5.087458501544505 3.870250484074528
185 4.015063055105178 0.5401834018214094 -0.24775328569298072
246 4.122988451458628 3.979096741223544 5.467258413224878
203 7.086840204561253 3.158668759569679 1.2964714041886833
112 -1.6200308620376194 6.548290901726034 -0.3355104943675277
77 5.642056676085555 2.74495179839763 -4.5784159031706055
206 3.890832349594289 -8.395733269738166 4.958032082697626
83 1.225347744290344 -3.8865968659379004 2.87166496296794
186 -3.824190095865598 -6.539163799214645 -2.6037545050314734
129 -1.0592005316261024 1.6691724109931037 0.28126546300470046
90 6.111436952361227 -1.9687897582245852 2.037660926984996
195 -5.4304535071550815 3.7041448278044546 0.8681236891672541
141 2.4779100122479454 -6.91221750977901 -2.3270750538866976
45 -2.3383602848123424 -0.30658576268518517 -1.0171218420500958
117 -2.518514361612259 -3.944468998603666 5.070961692941604
198 -7.7674351010224525 -16.64869990358586 -8.870078141905045
148 2.074769156378925 -11.45066675573541 1.2277769815312745
21 6.347224092227183 -1.8461184046755021 2.4782178346238704
126 8.830716540750606 7.156331731474761 -0.0099736822948574
114 -3.337237255938231 -0.2379379214518066 -10.565655757794113
237 -6.12331603110385 -6.230291699611966 -1.6153004194145089
14 6.146560528954549 4.154477781722321 12.28189965589324
12 3.038610929665888 2.162763847612454 1.8616008292929942
25 -3.310958209159567 5.854227698413806 0.5764873770640833
73 6.132406336007409 -1.7952264286374264 -7.168231700702251
175 4.757848756819619 1.4937872286018885 2.97667741816177
26 2.8034167870381674 -2.7106072431152755 7.340516168600678
134 -2.565467869531655 1.884570971041313 1.6597922367799827
180 -4.118526910885181 -3.0934874449273106 1.1717745031836069
5 7.59895932799555 -2.6802699500513794 0.5410530886182604
146 -7.371232179388821 0.7489998560366842 -3.669680681981372
156 9.95010454286633 6.7991100824247415 -3.4911986367482286
247 -1.434840901929038 -2.915812165423441 -4.341630641202732
16 -3.85469125868182 8.797160083177957 -10.817228687122054
162 -2.154875063891903 -3.7350270172430564 3.513718041459095
33 1.7180237513033563 3.8281990139576454 9.368456089386374
86 -3.3749955796848443 -4.323384949633524 -1.9400690532226967
108 4.060800278636939 -1.621422713971096 2.7844467735108633
7 5.13507517878482 -5.69232793469401 0.24870147226105943
168 3.1498714464566877 0.5914596758754326 -4.8562185438306456
13 -1.2015810761520067 0.36787456610173924 -5.37484254917967
202 -1.5994086301344694 1.7807942939762267 5.586461535296356
239 2.663372693072681 0.379221228216871 -3.4502607170928705
55 3.1540154861309486 0.1435836784694658 -1.6433653444124803
220 -0.058140610588230085 1.520068244636836 3.74461873727686
144 -0.016573368326225146 4.027736641735159 0.3604139156439482
116 5.326568944670943 -3.4969143693065905 -5.487482374757125
11 -4.550007032266079 -3.2214892409168074 11.098936407364931
65 -4.516340755064417 6.185765230183744 4.6106015094639465
107 -6.3060284468720145 -3.574530958079089 -7.862615583760606
30 -0.3189894638241941 9.275322832596807 1.9490262110275274
145 -6.4013721180252325 0.15196026561326242 3.003357968866545
10 2.0374435756979805 0.3228777880748923 3.651638534593726
181 -6.167233681386733 0.9541654134118458 -6.759707272425634
48 2.471008110698838 -2.1288604609032817 -4.266894921661316
184 -4.660756568866641 -0.5975962189760389 -5.321485146138923
164 -6.612295201955467 -2.4232487486933003 -4.200688446220882
231 7.537178247384356 -2.7515085922986278 9.662767127303788
222 1.5731139835691443 -9.095757292148216 -1.6946503047606918
100 -5.641782937050751 6.6085412574102556 1.198699986961893
56 1.750351085727686 0.8363823722694397 -2.8587719056974246
110 6.839497599075884 -0.07538495686823829 -11.768443721980939
78 1.8084086617846855 3.9808389540056184 0.4375477046966856
18 5.800221556768055 0.22850341583189848 4.270875616376994
103 1.9850570941503336 -1.0032864448166239 2.800540178824881
57 3.2506704635112462 -3.3474380407724587 -1.0694060171370554
85 4.940272259211104 -1.7945559732706078 -6.210864915838959
157 -5.33324584114925 8.817208851909445 7.921588799970961
121 -4.109761956982097 -4.847122889002581 -1.8499379489003123
28 -1.489654104597932 -1.5163392211397408 -0.8158065399641083
42 -9.247677627559339 1.068865890690597 0.47516997252040555
133 6.202283376477912 3.9306547153534797 -3.2383980295021564
124 3.7050462294832927 8.068055703756794 0.9624164862599442
74 -1.0592345641517034 -2.7343790782517106 -1.8613646753310011
153 4.526841694846014 -3.0093010305061725 1.154147525477276
44 -3.508365639363406 4.32766861758807 -10.406617369243566
238 -7.105875069537119 -10.000298828291179 2.1940895536602447
104 1.3334979666378206 -3.0266697801619733 -1.3054757497095972
251 -13.775472466172614 3.892053278062815 -5.684483444797628
191 0.3945096979014749 -4.438394634508618 10.421430088249242
118 -2.469029064713726 10.325124786612799 4.59402676165662
199 -2.703605130547865 6.451448716090663 -7.325836351799537
167 7.0097689258277445 -6.1515674089258034 -5.515735782271298
252 -5.904122527912151 -2.0724739409506516 -2.847767685707359
115 6.038221179881921 3.1124184493770204 0.8054019521203197
136 -5.735221834267778 -2.843051331032452 -3.001598315793465
213 4.342800674210737 -7.163251151217874 -2.6920976678167565
35 -0.7833473191871139 4.643392965237745 6.682891613918013
59 -2.0218765364126847 -1.1926499236115276 -5.645319469738895
102 -5.419735851799288 13.031723701925456 -3.429528653856957
196 -6.171144129957455 -5.422658278530209 0.245436212283053
23 0.019346835541870305 2.1814032857604846 -3.5993781121856565
3 0.9689746007573338 -5.224848626041557 -11.050083982961706
187 2.864169179234655 -2.6662496961042152 5.5325661230375545
205 0.019925390282434376 -8.017091451625427 -8.350721863359883
208 1.1709763009173402 1.9937317208534238 12.622894688748458
169 2.7702436231313934 -1.214071457263661 3.37127679253975
223 -0.32232092541086826 3.2078633312385523 3.6696268665947067
232 -6.0390650113169935 -5.9461164107535325 1.993313232163133
106 -6.264430044231227 2.9280870933774414 1.549814226288597
197 -4.088444934180243 1.4586347724061035 1.2070003299112502
66 4.552898511038758 1.429738343939728 3.2205602108685283
189 -1.3114116215418519 -8.018945702898467 -2.480016532417127
46 -4.165092140632747 1.4346284900484139 -2.421424139458003
99 6.153836211991215 -6.885833998788569 -5.697935229237446
93 -7.198099842753185 5.115590896828654 -1.8581587914593265
241 -4.703313936542726 1.1085487986628424 -1.4699926055634722
75 -2.4433194170446173 9.867197933946432 -0.5093633432774918
177 -0.639479867338076 -0.818739738335699 7.124989301375648
123 -0.8589714596986718 6.179215825538727 7.6367807158750995
183 -0.15199169707443927 0.3915347944925725 4.268731068590595
69 -2.3928984416392916 1.227166837140845 7.02850816514881
101 2.6672208606276353 0.33554615246562697 3.7371308034274713
72 3.9391407994612497 -2.7220582230351034 0.9504626427093503