LAMMPS data file via write_data, version 27 Oct 2021, timestep = 4030000

256 atoms
1 atom types

0.608950180929126 17.391049819067995 xlo xhi
0.608950180929126 17.391049819067995 ylo yhi
0.608950180929126 17.391049819067995 zlo zhi
-8.930133298148771 5.527799928006112 -9.706214767407602 xy xz yz

Masses

1 26.98154

Atoms # full

35 0 1 0 6.567170175066047 -0.018548373247160188 3.0317697682631324 -108 31 3
183 0 1 0 1.48819195229017 4.312092295140365 3.1000025488228804 -61 13 3
19 0 1 0 3.4398854432334796 5.9704991358765955 1.5020026732593594 -85 26 2
38 0 1 0 7.266681467104155 2.286051040032263 3.8614132094731133 22 -9 1
112 0 1 0 4.503540538467318 2.172654775189631 2.430783703938254 -131 30 8
193 0 1 0 1.6184872704047946 1.9462637853892786 1.3010026886886004 10 7 -6
185 0 1 0 5.970208764257655 4.563880568183027 2.358504998424821 -46 23 0
215 0 1 0 8.277841504753663 1.197843476317392 1.319124735512163 2 0 -3
30 0 1 0 9.437881210922159 -0.0423721067200733 3.4722274278487046 7 -2 -3
187 0 1 0 -0.06265486496107897 6.089514326966772 1.176008496431678 24 -14 -5
201 0 1 0 8.717771783588677 3.902766643442547 1.520978014878767 22 -11 -1
116 0 1 0 5.386949498483711 7.186022149836426 1.8591491603474968 -79 23 2
189 0 1 0 1.3413036051373537 7.131899244021883 3.7205804661175255 -25 2 3
207 0 1 0 -0.18395960203534056 2.241615605190016 3.378538859116346 -10 2 -3
252 0 1 0 -0.8691344482192107 5.107593709471189 3.7155340965755976 -13 9 -2
104 0 1 0 13.29829028268609 3.6826533517167306 3.886335391999858 33 -14 -5
136 0 1 0 15.023420318051695 1.1310881046034198 1.7728594139986453 -14 5 5
117 0 1 0 10.036252889642041 2.929939425021227 3.6261719218661645 -59 16 2
76 0 1 0 7.9249440880890365 6.868965564166208 3.4907116275544143 -34 21 -2
99 0 1 0 12.217717113136779 1.2922128152589925 3.415312421012604 -6 2 2
192 0 1 0 15.419235587011977 3.4310811298346895 1.2600836698832862 -11 18 -3
121 0 1 0 11.451656745309519 5.20691573204782 2.6763912671946666 -47 11 2
14 0 1 0 12.927065204884602 3.620361814666463 1.1450261994496773 30 -19 -1
167 0 1 0 14.519482172737595 -1.0190146137301888 3.6993984709079792 14 -7 -3
12 0 1 0 17.23935743248719 -0.49470253316728896 3.7802050992191827 69 -24 -2
52 0 1 0 13.88212948710333 6.329715776040944 1.66618116601447 -61 13 6
11 0 1 0 7.7653149705797055 7.855476255616903 1.0363724358142758 -18 -4 -4
33 0 1 0 14.333227561056198 3.938730789809567 6.2780237625443 -79 24 2
156 0 1 0 12.712160854814565 1.7538647371181941 6.247643727317402 -9 -2 -1
68 0 1 0 12.080941368773589 -0.9485103482108148 5.187899664191904 -16 1 2
27 0 1 0 3.397715257281117 -1.1263436947509518 7.264380203258117 -1 1 -1
107 0 1 0 4.605905388662397 3.6876529586520803 4.665902467324748 45 -4 -3
213 0 1 0 6.202417451324239 2.5167517796327026 6.548812044878125 106 -30 -9
165 0 1 0 2.504141705295152 1.8568157661457239 4.130920939645534 -23 6 5
249 0 1 0 0.37905401012305395 2.4820319543993663 6.014114042460983 -41 7 -2
115 0 1 0 10.30549894064025 1.6701031379398072 5.797180731031083 -70 16 1
85 0 1 0 4.897497901401954 0.5948024097278233 4.759996551752529 123 -42 -10
122 0 1 0 17.164688394420722 -2.225974456669625 5.847262989287377 0 -3 2
13 0 1 0 11.346697463467734 4.339613617796743 5.486487094021571 -63 19 3
60 0 1 0 2.0608301225322183 4.479422059540025 5.510929071096533 -61 20 -2
177 0 1 0 4.221814052661833 6.583036391334017 4.21073457290227 19 -4 -1
219 0 1 0 7.809391259211628 -0.15621989712907203 5.573571707829911 6 -2 4
4 0 1 0 1.1949903966645514 0.12482988950704854 6.810415570010895 24 -4 -2
234 0 1 0 3.256838101944957 2.0660090848875563 6.803106262594766 -45 11 1
162 0 1 0 5.222666215432825 -1.6946967516980989 5.60031306722992 -9 10 -2
73 0 1 0 2.6400771444687425 -1.612047598143851 4.712015758830805 -30 11 3
47 0 1 0 15.10640770780436 1.1804494983856921 5.285122121159478 -50 16 4
16 0 1 0 8.082628448812923 4.112958827166816 5.768818871976278 0 -3 4
78 0 1 0 13.791852407963846 6.298657899055334 5.161389567060883 -53 24 -1
1 0 1 0 6.49850024938429 5.9693034088106645 5.608876416473474 73 -33 -7
45 0 1 0 7.299702626828493 -2.5534456389334474 7.098877062374457 -85 21 2
86 0 1 0 4.351672204322671 4.718459359890412 7.229815032995881 -38 22 2
137 0 1 0 10.13122908705268 6.327417621144798 4.786186903084834 52 -9 0
110 0 1 0 4.676108048212651 2.8672536780544755 9.028649309578327 -6 1 2
18 0 1 0 9.63589893489179 -2.227450762310662 8.538952869313977 -91 19 3
75 0 1 0 5.2807021523885265 0.38385273051416924 7.564889756496737 -3 1 -1
100 0 1 0 7.713798707079851 -0.13287202387807984 9.120132634470457 -99 21 5
31 0 1 0 11.834165536572732 -1.6966626035121548 9.76465949659965 -50 9 -1
108 0 1 0 15.175743401079403 -2.3839952729229372 8.57169323960423 -71 19 7
15 0 1 0 9.6998749049179 4.98171793324884 7.503521446136881 -2 3 -5
103 0 1 0 16.16316690382911 -0.10095722419095221 9.302901726705647 -19 2 1
240 0 1 0 18.235628013382993 -1.9012779507937374 8.913363989090897 -21 9 -2
46 0 1 0 8.288711778261728 1.8019828539022242 7.744681866156074 33 -7 -2
29 0 1 0 1.8128432062948474 4.529845175223471 8.023670898439889 -34 6 2
233 0 1 0 2.9327392003329495 0.7653775913667129 9.547754306126686 -85 24 7
25 0 1 0 10.716968888748225 -3.90850665532765 10.107187685432994 43 -6 -2
253 0 1 0 10.933549005400097 0.08075806932925111 7.706456803500924 -11 -1 2
50 0 1 0 13.243877235128435 -3.9589547173180923 9.72299288737696 -10 -4 4
175 0 1 0 3.442990636768186 -2.0409019787918536 10.464157735310957 56 -20 -1
211 0 1 0 15.202167617480045 2.9848998463879424 8.721991765260356 -99 39 5
91 0 1 0 10.01432648066397 1.4407726612698193 10.056678744712348 60 -21 -1
250 0 1 0 13.069917691635728 1.026635005992656 9.49016729548117 -88 24 3
51 0 1 0 7.398515931304725 -3.9912364941286684 9.473276847793471 77 -21 0
218 0 1 0 13.570249745803729 -0.5826664814838058 7.832369601967766 -143 52 11
195 0 1 0 18.975250373338177 -4.353950922077335 10.072256811407902 -20 -2 1
92 0 1 0 11.498440787131099 2.922073109645324 8.167605396122678 -59 13 6
232 0 1 0 5.8743533985830165 -1.6601883997690092 9.860080865906244 6 7 -2
170 0 1 0 4.930954517345333 -3.7242774490760597 8.104510231155997 -53 23 2
39 0 1 0 12.299573600489207 -2.7814305527253085 12.4074086863887 47 -27 -2
251 0 1 0 17.624550550454906 -5.612395675046173 12.180282603755334 23 -14 -6
247 0 1 0 17.899573613422156 -0.8159178433427421 11.399042898902572 -26 12 -1
212 0 1 0 4.713307890236091 -2.5833420986902382 13.104037807169318 -61 20 -3
191 0 1 0 6.751150434107085 0.9257907838359953 11.065687202427773 34 -16 -1
141 0 1 0 11.355289616731962 0.38743503078729713 12.966453871190962 -12 5 0
210 0 1 0 4.066300865364616 -5.314079002940879 13.307651693857165 -22 9 0
72 0 1 0 18.57691739083824 -3.782239305989096 13.399607627862416 -48 18 2
248 0 1 0 16.188664846616334 -2.2962217447108015 13.47057474129654 -77 18 2
23 0 1 0 14.43633375220292 -4.608331590082731 12.449403141298635 -43 15 3
123 0 1 0 7.571800685577806 -3.4930204005976986 12.293089065780835 -77 28 5
8 0 1 0 14.574703349691598 0.9762046081806766 11.453601914035863 -80 34 1
178 0 1 0 2.3580564940878523 1.5119668508215396 12.683829735733145 -42 9 5
125 0 1 0 9.993024655267591 -4.159566450505311 12.677200265316785 -31 9 4
77 0 1 0 6.6558915152450595 -0.904229572208191 12.564647644263392 26 -1 0
223 0 1 0 16.335532907453228 0.7090985709671056 13.577993737831125 -6 0 -1
157 0 1 0 0.3378481288365438 1.6891085021486223 11.310682780393845 -51 14 3
154 0 1 0 13.902229973925264 -0.31754730743649784 13.542283160575355 -43 7 0
20 0 1 0 3.950653397437111 -0.006373785016949185 11.946316664478058 80 -18 -6
43 0 1 0 9.466015971464165 -0.900620223757203 10.954473208690938 31 -11 -6
172 0 1 0 16.628975380518973 -3.2152752326696548 10.94747518592715 63 -20 -6
235 0 1 0 5.380567509462806 -4.387722201403104 11.00477946512179 3 5 0
58 0 1 0 1.8981033733740031 -1.2809926879018132 13.684384324959192 -69 28 5
89 0 1 0 9.03237024870232 -0.15496181994591485 13.814595456588584 -67 18 1
134 0 1 0 14.309653325293532 -1.5034125083084895 11.062908850101254 -14 2 -1
3 0 1 0 13.902066296114612 -7.6574943630690235 15.457779273866326 -4 7 -3
10 0 1 0 7.314778380340015 -5.290024418061053 16.937972417918644 -16 7 1
84 0 1 0 14.065205021118635 -2.7641980385174305 15.05100165248783 2 2 -4
161 0 1 0 16.101573450247123 -7.136126829921626 16.79015852253739 7 3 4
166 0 1 0 6.4702759203529485 -0.4153152902829138 15.778172777159211 47 -16 -3
21 0 1 0 3.3076810596779405 -1.360432855778221 15.811768935396383 108 -39 -7
147 0 1 0 5.115493495312365 -6.629869532977214 15.481518724903522 -2 4 -1
133 0 1 0 18.55679435367655 -5.912326078127101 14.920222193132714 -57 22 6
220 0 1 0 8.60559985199402 -7.778738752539223 16.12776908718555 -85 23 0
81 0 1 0 10.086491657627192 -4.392177484187202 15.822950376970393 -62 20 0
7 0 1 0 4.466928878330055 0.8214176313798447 14.481414390083685 -56 12 2
74 0 1 0 17.932958411147645 -3.259668380971986 16.094987295723598 36 -14 -6
64 0 1 0 3.9169990429227797 -3.933856137085794 15.516357442628856 6 -6 -5
111 0 1 0 8.704597102402586 -2.0015479154095335 15.960912667249119 58 -26 -6
238 0 1 0 15.919184334499318 -0.918911288958463 16.023553137255995 7 -6 1
139 0 1 0 6.571473861660445 -3.054463232375869 15.04042784864812 20 -3 0
231 0 1 0 12.146140237485325 -5.084292484210714 14.425419238625642 -38 19 -2
164 0 1 0 19.545535435400815 -8.045494562476497 15.97166104779692 -57 21 7
174 0 1 0 7.158521073853277 -5.519826419603666 14.18493383627696 -40 16 0
230 0 1 0 12.765870343098884 -4.017847043497903 16.82751994910437 -17 4 6
130 0 1 0 11.525208190248266 -1.419599436531839 14.865132676378199 -74 30 1
149 0 1 0 16.139926285007917 -4.651754568063016 14.60942260387286 52 -16 -4
222 0 1 0 11.37183896434606 -6.723274434048489 16.692506761870227 47 -5 -5
160 0 1 0 9.625161223197034 -6.259589174343111 14.256589682668638 -6 -6 -1
59 0 1 0 15.434223369047043 -3.601682791718493 17.172637092635455 22 -4 0
41 0 1 0 -4.407966636902976 14.309817706901395 2.914867092394338 -27 0 -1
70 0 1 0 -2.52334989199273 10.125225161867446 3.678281574795076 -41 24 4
225 0 1 0 0.16789337067293936 11.344495810991816 1.411895819137107 62 -24 -7
98 0 1 0 1.7429611184085076 8.49650783932612 1.549244349829423 42 -7 -4
226 0 1 0 0.4546920556691282 9.628181476488928 3.5727764463253395 -80 23 11
6 0 1 0 3.766593548423652 9.157513691096064 3.6409292648284928 -36 7 3
229 0 1 0 0.060146964366930344 14.460385295981082 1.8254454282554888 -106 32 3
142 0 1 0 3.080254198510173 11.349235090859157 1.7794330357990304 86 -21 -5
67 0 1 0 -1.9832077376921924 12.552399969170947 2.524319565532114 -22 1 -1
114 0 1 0 -4.947751761972503 12.1532108121713 1.1625032034635439 46 -11 -4
48 0 1 0 -2.194386277013927 14.52068376254481 0.7994562873481273 30 -7 0
236 0 1 0 2.0380225278825255 16.928417471970988 1.4039546791740771 37 -7 1
17 0 1 0 0.5224801308779865 12.380791743080819 3.921837302646253 -11 5 1
196 0 1 0 2.893671258903705 13.979410775549388 3.5103066470603275 -44 12 3
124 0 1 0 -1.3588616131386935 8.39274935409258 1.7784428151240974 -42 8 1
138 0 1 0 -5.569683275226554 16.426436033131587 2.158278048628823 -34 13 -1
241 0 1 0 4.873134368716507 11.807579209275696 3.8864884656615875 -25 -2 -2
63 0 1 0 10.023075818992215 8.065773089023342 2.6486280343551534 -14 1 -4
119 0 1 0 4.928062157806663 13.300525450315144 1.561536877305936 -60 18 2
209 0 1 0 7.146811022672416 10.238035020819888 2.2421984484462247 32 -8 -2
101 0 1 0 9.47943673555743 10.384679330715686 1.4477192160992403 -31 5 2
168 0 1 0 11.730733023485223 10.270849202715317 3.486640467128956 21 -7 -2
246 0 1 0 9.793455151332966 14.286865385164687 1.520911745872373 -53 18 4
129 0 1 0 12.719281196409076 7.695766444035324 3.2458933282163653 -21 8 3
216 0 1 0 6.73094002979714 15.081555439447472 1.2228125573949105 -21 8 1
144 0 1 0 7.412084140332341 13.136970588603992 3.275763932196009 67 -30 -7
145 0 1 0 4.473676575867985 16.046251492062666 1.0179367089620495 -4 -1 2
239 0 1 0 12.851668057447883 8.988558641577596 0.7173597475482922 -30 15 -1
198 0 1 0 11.831221888088782 8.752903318214884 5.560189093846629 -42 18 -1
204 0 1 0 5.42533197095821 13.713977328035412 5.645513415841255 -70 22 3
256 0 1 0 9.154423946202968 9.554921584890879 4.642974393136551 -48 8 2
49 0 1 0 -3.8567162833246798 12.445748010107101 4.7368083486725725 -100 37 5
217 0 1 0 8.213887099379143 7.62985495745113 6.511389789149045 -36 15 0
42 0 1 0 4.718864769435098 9.684971737004494 6.058028812371535 -11 9 0
255 0 1 0 6.273423774415889 8.66795868070344 4.073229116395413 -46 13 2
82 0 1 0 -1.158946868450453 7.7855747107252675 4.341910160787992 11 -5 -3
245 0 1 0 2.988222132652053 13.547236732577577 7.222211211606267 -102 33 2
151 0 1 0 10.421498703604383 13.017869839156036 6.874135769331922 -120 39 7
80 0 1 0 3.048363143452356 7.554730613349067 6.938849165870941 -16 10 -5
118 0 1 0 9.90972540553868 12.511649487740273 4.148352619232695 81 -21 -4
40 0 1 0 7.339216163874187 11.381581913524437 5.672709623671734 -1 -7 -1
202 0 1 0 2.477115876668865 11.294273219570742 5.198553227684511 -68 15 -1
131 0 1 0 -1.417607369272302 14.188319186700822 4.210663310676866 -66 23 0
197 0 1 0 0.4442289059099105 6.4007736920964575 6.320077249712125 -103 30 4
242 0 1 0 -3.2956815826142543 10.326734336163996 6.499885041272233 120 -35 -9
93 0 1 0 -1.2213848428072105 11.75704650628808 5.437375868587745 -28 9 -1
214 0 1 0 9.65899031290917 10.193593453662116 7.183905209261668 33 -12 -6
66 0 1 0 0.8902390017788366 14.480005256836693 5.579324510640974 46 -31 -7
224 0 1 0 -0.9872307164752447 8.672552774851962 7.087966329873947 -69 20 1
5 0 1 0 1.5014309793217524 9.214577433355986 5.837987587759618 70 -31 -6
113 0 1 0 13.11728466549507 7.8074464290682615 8.586812646312637 -14 -3 -1
221 0 1 0 -1.1644741776384357 7.882719569779802 10.143947208615772 -47 15 1
180 0 1 0 8.082143152307669 12.35999235159771 8.015121155763149 -46 23 3
127 0 1 0 -1.7183329440765993 6.073913287074274 8.037792706378333 -39 14 1
254 0 1 0 3.622990606415974 6.13963299842555 9.60157081238783 -115 28 6
83 0 1 0 3.048387186435221 10.84210222749113 7.991130931072742 18 -14 -2
55 0 1 0 11.639107953765071 10.391405969019116 8.52621844030351 -97 36 4
90 0 1 0 6.8548896428137125 9.680230728983966 7.976255593078775 -65 28 1
36 0 1 0 1.3868650059900682 7.483747066368452 9.013116041920272 -9 -5 -1
34 0 1 0 5.902492324212937 6.820244646749943 8.530373004089656 8 2 0
163 0 1 0 13.567021678999458 5.183285624836751 10.403998514591017 -43 19 7
148 0 1 0 6.674966183126465 11.080487502086639 10.495793057826294 24 -11 -5
61 0 1 0 8.541361109223214 6.705464801425294 9.665031956177632 -10 7 1
102 0 1 0 8.97441116641342 9.675713824022042 9.913690776493512 27 -7 1
199 0 1 0 12.566596882394846 5.38405022967682 7.794145404738007 -84 24 4
9 0 1 0 0.5444772184265867 12.35156696931275 7.325253201520198 71 -21 -8
146 0 1 0 4.693199652344562 9.144356965734717 9.900626610522083 24 -10 -1
105 0 1 0 0.6086016900120796 10.214114448314835 8.791661099109495 -66 27 6
155 0 1 0 10.431447358843478 7.629922818775374 7.945012735103183 1 -3 -3
132 0 1 0 -2.4578591062215596 10.285001617560779 9.0382309761926 -140 46 5
176 0 1 0 0.08283278817315542 5.315287503620362 10.157124294858967 6 4 -3
244 0 1 0 7.267109195673145 4.429189392092325 8.560103925895538 -71 26 1
109 0 1 0 9.774432053258625 4.527641960147714 10.29905405684615 21 2 -6
126 0 1 0 2.3872007584835715 3.5595062200689096 10.580504274577118 -155 53 5
32 0 1 0 5.372161838192822 11.804114731155249 7.583928898420555 -3 3 -1
140 0 1 0 0.8811786027709974 8.18593059876412 11.719983049153177 -26 4 4
88 0 1 0 12.285837915455387 3.032458584155826 11.58993878193961 -102 35 5
143 0 1 0 9.859095442172961 8.503389116074434 12.44218992433356 191 -70 -12
208 0 1 0 5.913279174886952 5.541438247949491 11.143037866282164 -20 8 3
186 0 1 0 6.843138599886059 8.303136923899716 11.080965421892103 -54 18 1
44 0 1 0 -0.8671823198351714 6.390652261957134 12.385600899567535 -124 41 6
56 0 1 0 6.935423246842855 1.588312533920277 13.909881003335824 49 -20 -3
26 0 1 0 1.0168873083729162 4.114088049603641 13.1131982545195 -51 9 2
106 0 1 0 2.3979848772986916 6.0721713585070365 11.88308521038918 -79 25 -1
237 0 1 0 11.15570185084214 10.05891354062164 11.208964038695415 -59 30 1
243 0 1 0 -0.7149162807626737 10.488934749775764 11.283756082067683 -101 32 2
135 0 1 0 12.116142272424392 8.388048827668733 13.680524066249522 -58 22 3
95 0 1 0 12.852909541512004 5.835254031164549 13.049763679595426 10 -8 -1
37 0 1 0 5.046666915926823 9.591053536908257 12.779247205239354 -6 3 4
128 0 1 0 -3.104969795371925 9.236320070265151 11.734833355372091 -65 27 3
87 0 1 0 7.7147305451082655 3.358559311413181 11.129182249433637 32 -9 -6
62 0 1 0 10.689232288694944 4.781571846305123 12.843098187455237 28 -8 -1
94 0 1 0 4.718403225053067 4.5114696638686125 13.677785994935915 22 -14 -3
169 0 1 0 15.239806801188042 3.543621150097768 11.721580678857137 85 -25 -5
53 0 1 0 8.19756645838315 6.307703411022868 12.441705632440662 42 -21 -3
24 0 1 0 5.321832337752588 6.962668798100359 13.576928714792341 -37 11 0
22 0 1 0 13.688724955180334 2.3126691798185144 13.72702232466939 -25 10 1
54 0 1 0 4.848593995847657 2.6465054357494324 11.602940298070456 -9 5 -2
28 0 1 0 9.4323570325082 2.2580978730638597 12.723996174442092 -25 5 -2
2 0 1 0 2.9273231382069227 10.945833048863436 11.738997326563615 -162 55 8
205 0 1 0 11.262669914324826 6.817281864531114 10.837549404163195 -21 9 -2
153 0 1 0 2.2220346418431767 7.279655356925568 17.00514031776116 -55 11 5
188 0 1 0 3.130627824284349 5.570061553228758 15.063637247350979 67 -22 -2
173 0 1 0 7.282112966203237 4.514598699076249 14.037720481377974 55 -15 -1
152 0 1 0 1.5902668821138466 0.9984734301621021 15.428005421000845 -27 1 2
184 0 1 0 0.4803066768511499 6.797209566091649 14.558944448497241 -14 1 0
71 0 1 0 5.339063555864672 3.234885798777645 15.781966913374797 69 -26 -9
57 0 1 0 1.0349448879057421 4.62271347697237 16.60569441948565 -103 27 7
181 0 1 0 -1.387540971814638 6.554144548674849 16.390377685241063 -4 -6 -5
158 0 1 0 2.665891221476254 3.1238560311866497 15.175738675241234 -24 8 -2
200 0 1 0 5.236349543876532 6.2519300561996705 16.246441356754886 87 -15 -3
227 0 1 0 8.76801230000675 1.8915624515144387 15.925675177868493 -26 8 -2
97 0 1 0 10.32499300063969 -0.07862778132987458 17.24883026833173 13 -1 3
203 0 1 0 2.6073488117406347 8.439046811788742 14.191663116232922 8 2 -1
194 0 1 0 7.800589540020218 4.139696044155439 17.136638339679273 15 -12 2
179 0 1 0 3.3138183059829327 1.3684907458750466 17.389922369929103 -5 7 1
190 0 1 0 -1.9080299833487855 8.182344857010502 14.065923189724774 6 4 3
159 0 1 0 8.05918447550945 6.905593997854062 15.647633551762397 49 -16 -1
150 0 1 0 12.96550903546567 7.2218717462906525 16.034351630821163 -21 -2 -2
96 0 1 0 10.01029105340159 6.685851773833069 14.335487811411813 -79 20 -1
171 0 1 0 15.569785049150829 2.5498298475301358 15.89579823568452 3 -11 0
206 0 1 0 15.22267024873777 4.810336376830776 14.36575377465035 -12 3 -2
182 0 1 0 12.638745237523512 4.514680922355499 15.173261833097305 93 -28 -7
65 0 1 0 13.610955592045416 0.3946458876861971 16.124007088319438 18 -5 2
228 0 1 0 9.880216690710597 4.43154378453227 15.572366796955672 -52 9 1
69 0 1 0 12.816708584824836 2.775349317761938 17.18386794017468 1 0 -1
79 0 1 0 11.25066164999789 1.697111683327499 15.258745103397803 -3 4 -2
120 0 1 0 7.586726068082973 9.259029387379387 14.089003187550539 5 -2 -1

Velocities

35 4.079343389202218 0.5080959463839356 -0.2861674889253525
183 -9.944469993369474 -3.513763795384992 0.9080674070035798
19 4.935142501131686 4.094283731468062 -9.810002429473341
38 5.425755814553136 2.777615264031726 3.109592651347013
112 0.9796551130064465 7.17302120026376 -1.9831303996579126
193 -0.2245491603614822 4.016503364346232 4.2232214265548675
185 2.400282653309244 1.9076587977495187 4.155885999833085
215 6.003934629105253 -6.320742901828785 3.273700622250833
30 2.226633307639796 -1.703738397932344 -9.832660773468408
187 -9.856615128231798 -2.1945488435836733 0.47973446832335676
201 8.578328306498378 6.723700118120643 0.6740688111425797
116 3.8642925842357596 0.40243267393455695 0.9945492590499969
189 -6.525245270008586 7.558586645477607 8.227928421998207
207 -3.850800058655305 -2.842769395743653 -3.5139150678304767
252 -1.9826994349344274 2.4154965161421518 -12.822504277746516
104 -2.491111214106594 2.0044262083803 -2.5949352575939697
136 3.280893030051749 -5.57888868671304 -0.9917370944900583
117 8.893591552258604 -8.47586807188867 6.41841740610867
76 1.2522072541306533 -3.6930446602498086 6.651456873159453
99 8.238210104830957 -8.676979387281813 1.973432638211704
192 1.153680529675499 3.6202720443546874 -1.0537949605756758
121 -2.736609507230505 -4.093260469806364 -4.464339181364465
14 -2.3075208758717483 4.216800112522748 7.215981168625536
167 3.0298842925269422 4.2159451694913095 1.8713978225759436
12 -0.491411192465262 -4.359869547998624 -4.267079360504776
52 7.983090621879237 -12.569722787418161 4.73723434243527
11 -5.848286836166852 -5.101746696439246 -5.623830842002489
33 -4.458872640086307 0.7172697362574868 -5.0247640303638335
156 5.848654239408248 3.3557730398312513 1.1626725738815016
68 -3.2139370508338283 -1.5445244245578513 3.4665795276048423
27 -9.686913307356777 7.960868491829066 0.2302867179930167
107 -1.8635963425705278 1.8219406638396356 -3.8057871161913783
213 -3.8856306094308435 3.50162464591051 2.4549257166832508
165 7.1292549439599275 6.853264342114894 -3.0814528510539247
249 6.036471128316311 -2.759082381966884 1.6358920896204998
115 2.8934611579986784 -2.131713368872677 -6.544054889049092
85 -4.713486598498207 0.6661843615614023 1.1701868154541735
122 -0.8176674256847706 -0.9126969859838807 1.0841715749937044
13 2.4199748572781408 1.3924048927898642 1.8548835251482236
60 0.001996246481466457 3.068208024068965 5.83555925081589
177 -0.9948349307961102 -2.141211394194488 -5.6555011216692
219 -0.12723290017984282 -1.127195809720758 0.3690747126018428
4 2.723716243859178 -2.4852360605067636 0.21494522715979347
234 -3.7940251489918655 -8.047783080838174 -8.351493849022017
162 8.989413908029087 -1.0046675866941221 13.561238797324167
73 -2.6341237105694004 0.051487745988255694 -2.2716359960879395
47 -5.5682762656526 -0.3659699748395805 -3.2309335992000543
16 3.416193386781529 -2.074158648916998 -1.1558002657418756
78 -4.318358877117154 4.243446167871608 3.429694334843591
1 2.050346216221407 -7.827328488571241 1.5192836652582056
45 -2.1831307751387143 5.045747782281072 -3.2713910414713414
86 -2.0144755533479666 -7.737440342129956 -0.7419281446299646
137 9.459897334862237 1.3215950083268224 -2.3956595862593275
110 0.4461489104130563 0.48399065102469185 -8.677220770871303
18 5.749251777952003 -6.733306483508694 -3.677230592051132
75 1.8921740680486905 1.8504152724201586 -2.1674789545290283
100 0.06516976472130248 -5.322132481689852 4.152893519705096
31 9.055106654810672 -9.103461983468312 4.367278534886058
108 -6.40030029793883 -6.954155956453255 -0.8633407390357938
15 1.1394516875123104 1.2724955080488634 9.033874815296487
103 2.68332734469334 0.8389599775354606 2.2922472782181793
240 0.6243431338368346 -0.33917682934066096 -5.714730614690269
46 -2.5853563164790425 2.6387993826827003 -3.8825602577726714
29 2.049124332294471 0.6534898531267791 -3.726893287357388
233 -0.6820898310572928 -0.7560596519508407 0.34117890477770163
25 -3.344908554923959 5.86968290349581 -2.37367395919627
253 -3.149138370742953 -8.806872767415403 -0.33803785465234526
50 1.6588764472394892 -1.779266685822019 0.5353617885237589
175 -11.111196271501798 -2.5867598797231266 0.36266455305049206
211 -2.0679611290797695 -0.2924518113858372 -0.16586020127153667
91 3.696433459524048 7.239462784840685 2.7228050328114692
250 5.122772238110669 7.678911243739256 5.300473355565746
51 -7.925253430674813 -1.117542145168506 8.60100852908657
218 -4.595185621003988 6.295003981986514 -3.807832519939571
195 -8.826676324929243 7.063624477266502 5.088309239626881
92 1.5776090505808023 4.038510631042206 0.3414921209377499
232 -0.3354915822270453 2.2705316888169196 -15.434745364927906
170 -12.341175979359924 4.1139777438350205 0.12044818648042155
39 2.7149522605797163 -0.5745765109525413 0.12693456132824588
251 -1.1362498759321866 -0.9880631025759858 -0.4174248021268343
247 1.5007465256993455 -0.7167576575181289 -2.3760289917199913
212 4.369819587709103 -3.5473005726288 -2.6504335921483184
191 0.7648370631709125 0.7787979604027044 -6.72662481245324
141 -10.467454119772425 0.4840668005308237 2.5564370038682926
210 0.10447291813925254 3.369919519982838 3.9666449401152057
72 13.237293603140529 2.238634418735334 0.5981343275705214
248 2.6540349995158867 -6.65629302391131 -1.6289773012889102
23 6.479884514152979 -7.471132343984288 1.5292599574702217
123 1.7365527654593895 3.625992078243412 -13.449827802939806
8 5.646079355474944 -1.0169626733221668 -0.9887785728416352
178 -2.1182721958316626 1.658847983066444 2.6635435967737244
125 -0.8901909941351532 -0.8171601881249717 -8.107220725799042
77 3.9519411885914284 2.3907000202544055 -4.323691322666214
223 0.8004820934667759 3.089429368019513 2.0797556714696936
157 1.926757558375576 3.170123505938112 1.5619497409143772
154 8.839279807010675 -3.366640695947736 8.977215391723309
20 -8.491425368269194 -2.6783085312029944 1.9852932845753692
43 -3.834332763211041 0.8876885019080436 -7.030502554416337
172 -7.48659830927592 1.4794089309513967 6.88584537069366
235 -7.4562182200665985 -2.865831177049999 -0.8309390953776556
58 1.3945739345272248 -3.085199772110271 2.9959645360652196
89 -7.241073815620829 0.39937494628005443 0.6967709582068798
134 3.944403742561306 1.9720253725560777 13.691457345068338
3 -5.054043593291307 4.977629521452116 -6.096986543889011
10 -9.1085421869172 2.1055155779543657 -8.195057690798384
84 8.175126230066292 4.259402328008776 -7.824666313913055
161 -0.7497481096906193 -9.777916680439668 6.278751820391597
166 7.022204153341396 6.5647798168144105 4.290010427866794
21 2.400103902593205 8.682926654298468 0.8514521228691304
147 8.511139488392146 -5.364864560585968 -3.6901789752629774
133 0.14310297556664814 -1.399548802280382 -6.0934557927625495
220 -7.068956072073301 -0.8925274966026653 10.379167286364293
81 -5.544718347781137 11.010458028860358 4.757312926114354
7 -0.33800449814957434 -1.2226421215104804 3.828206858943483
74 5.465949740960764 3.139162564041315 -2.3488514556374165
64 -2.3344213843666433 -7.513521871707093 -7.3819295192167615
111 1.7758403305366322 -0.42453959936119784 10.132438234697151
238 3.084975182939424 -2.261306315704616 -4.769344645798126
139 -3.11818204838295 3.7382665601466316 -2.4623647426451227
231 1.2817609170752742 4.686466899683581 0.3491805125005589
164 2.7045919337232727 -1.4196727994061071 -7.143880817901228
174 0.056707126235361824 -0.6568835940189561 -6.812315768046114
230 -1.3871309085073353 -3.6657308802335455 5.157301871952067
130 2.9384100312362245 9.005313238024263 5.660998082643646
149 -1.200039437326842 2.6373823808998056 -2.14559198402608
222 5.497583252500894 0.1903106910129183 1.5611266162943913
160 2.9779811055194125 -0.26092520359743165 4.0860425799494084
59 -4.886065681332603 0.7524984494632427 -9.39626020468494
41 -5.08654117444147 5.221983809601728 -1.646074081168522
70 2.5501311483617077 2.296957585701688 -0.9231896919547813
225 -7.535435024345062 -8.822660103846056 3.9959422796480046
98 -3.8078613706294284 -10.08060256294444 7.3148966110476845
226 -2.5256511487187763 0.5541381421873091 -8.027444968991883
6 -6.865420801300656 -12.599051749634851 -1.5222380743595205
229 2.3658222991340385 -3.8090967204103867 -0.6564118440270905
142 -1.497072165781756 1.2579044620045274 8.330497611682508
67 8.588759993612369 0.8132153374259833 1.9379368204844223
114 8.214877273755972 -1.2797993765491857 -0.7971463488335379
48 7.73599848954084 -0.15936684253098649 -1.0635130867959075
236 3.433426785735785 0.5719381975895901 -1.0521337906275297
17 -6.490149937610826 -2.300819627583501 3.8579432792249073
196 -6.298614916265038 -3.2809417585927996 -15.503817267907122
124 4.498845397119261 9.46455580106006 0.35707234784349673
138 -7.7898310613253345 -1.6793800730172763 2.9101138823085364
241 3.226884621136829 2.90896032852165 -4.415727930875385
63 -5.54899516825681 -8.20492219684925 -1.1405599220695608
119 -6.287020037527239 -5.404945573788283 -3.592084437026041
209 1.590647492500366 1.557345003709041 -0.4671869906358362
101 -5.731456669191446 -1.0139807717458904 -2.3895040853054708
168 4.13781810169868 -10.864721905953315 2.0774039713808663
246 -5.878039651742878 -12.949130940961885 0.1832379606498595
129 6.547749351527216 -4.75711542745204 4.843080991996832
216 2.580297335571549 10.13967221483765 3.2714060590230263
144 -4.902621880446063 -7.863022454281971 -1.6255643118327707
145 -9.762795919588863 -5.667257850263499 0.4678470398139032
239 6.608432444192159 5.509865168054045 9.606272088837912
198 -3.9919769095386455 6.352285627508739 -1.2106834948232632
204 3.4253563085632943 2.005228621891255 -1.4296146667757266
256 -2.6344344814414056 8.474283316820829 3.287891863111957
49 0.7898838773856172 3.9277685876881008 -9.44729173964767
217 6.187973840771771 1.440329735931426 -4.131830901800768
42 2.677678649491905 -8.159004181827408 -2.27886070286696
255 2.766110002576481 -1.5791931429082335 1.9956305913112542
82 3.541076133423371 4.760356580501303 2.915004328037802
245 0.8761980477491071 4.104514422864984 5.05827132390915
151 5.158893158451319 0.8850621195791144 2.4124652930302273
80 0.3799578701896023 -7.627382863805479 -1.2714984324802803
118 -2.7087978348149013 -5.102973336883607 1.314795568544823
40 -3.8996117826648447 -7.379087839776873 -2.1875346126010298
202 0.4038011851953052 2.7576615281315275 -3.531525354845464
131 -0.5809946001131232 -0.3721535801036647 -1.5334445868099165
197 -8.21007322409919 0.38224079354957696 7.813896458667017
242 4.842218667221883 1.6463959590157162 -8.639586001172798
93 -5.100226696069051 9.787442709870916 1.6280994611122546
214 2.2692586775981907 4.24485494149687 3.146388844147494
66 0.31759977941107564 3.220494897672191 -0.7147432303570369