LAMMPS data file via write_data, version 27 Oct 2021, timestep = 6210000

256 atoms
1 atom types

0.5919586376736827 17.408041362323186 xlo xhi
0.5919586376736827 17.408041362323186 ylo yhi
0.5919586376736827 17.408041362323186 zlo zhi
2.7658312441743154 9.336179791173489 -2.366602141904931 xy xz yz

Masses

1 26.98154

Atoms # full

13 0 1 0 10.436565299206928 4.333238256489738 2.0148537783853095 89 -13 -3
41 0 1 0 6.606743422995338 3.805752033576251 3.8876964790895197 -91 18 5
253 0 1 0 8.925976832167912 2.630566484663623 3.5786063272972854 128 23 9
103 0 1 0 4.976636040688471 2.0562219352069757 2.2702562001870117 -65 -20 -4
43 0 1 0 10.016817191348718 7.512085670158102 2.1751466887896638 248 -42 -5
106 0 1 0 12.908535877441286 5.051206977116849 1.5035666164832509 24 50 10
65 0 1 0 18.587313325846083 3.9380078418103976 1.860126079325371 -34 -25 -5
215 0 1 0 16.754489317674746 0.9280953572846418 1.1659667197718786 -66 -33 -10
238 0 1 0 5.586103169366228 6.040508351474782 2.752714071360414 55 -54 -7
133 0 1 0 12.533907850916453 7.7246586562367305 2.6351804687501166 -63 5 -1
117 0 1 0 14.393976704510443 2.569976218458275 1.868957743363949 12 33 8
12 0 1 0 7.68071382569118 5.916173107342232 1.060295871710251 270 -72 -8
182 0 1 0 2.7165460050637056 6.404782735712155 2.096458979390887 -2 1 2
68 0 1 0 7.1573552879391995 1.0214608635797018 0.9659318868845512 -64 65 13
4 0 1 0 16.66208679479157 2.380495887298536 3.2819163571817422 23 -71 -15
239 0 1 0 11.993454135100343 2.438785553747235 2.7010499082509414 128 19 8
114 0 1 0 9.66193065347484 1.4434879163525103 1.081275753302444 -136 5 -3
146 0 1 0 16.602017804611187 5.362175180143284 1.9485807443897067 -37 2 -3
246 0 1 0 6.839708768797814 8.397790793565456 1.8830644553123785 -45 51 10
252 0 1 0 15.21076026260423 8.444765231277023 2.6093863736104725 -218 44 7
232 0 1 0 8.18985027702589 6.091055999795557 3.6192578143503353 -271 49 4
189 0 1 0 17.099146857970972 8.151252825270058 0.9789644426187794 -65 -4 -2
88 0 1 0 7.562347669590544 0.4126905102854663 3.8009438752053257 -30 10 1
184 0 1 0 14.764172984078705 6.085519554514505 3.6165087517667933 28 -1 -1
19 0 1 0 18.48585469553381 4.804797109271341 4.411502153406369 57 -2 1
206 0 1 0 19.915000418753195 7.144217696854849 5.115261620776061 119 -36 -5
31 0 1 0 21.664491451949516 5.341537212661128 7.263801808733018 -32 15 3
95 0 1 0 19.41711694114784 0.25353091765138996 6.097256662810644 -50 -37 -5
74 0 1 0 11.006569188028022 2.4148692408845016 5.731921671068756 -119 19 1
66 0 1 0 17.56804373746985 2.325864933933334 5.780060403257459 133 5 3
135 0 1 0 11.504551494068503 7.19418410982608 7.248843114364326 -67 14 3
193 0 1 0 8.178083805005114 3.3692973400730866 6.4173015923542085 11 -21 -4
120 0 1 0 13.38120545600802 0.8070512311517267 4.29363162136217 -20 -4 -2
203 0 1 0 9.082135655990035 0.18329223100780073 6.388907924752323 67 24 7
165 0 1 0 8.771646260737855 7.668563728376376 6.297482044051196 29 -7 1
127 0 1 0 15.841326408345806 4.328972278880162 5.305510475015031 9 19 3
58 0 1 0 10.20358006085665 4.5712008058491405 4.909479646211353 74 -10 -2
73 0 1 0 13.054980860904202 4.165985341616931 4.712968588060577 -131 15 1
3 0 1 0 4.078689180794312 4.598707436308096 4.28735235897253 -49 -3 -1
28 0 1 0 5.9124291755228064 6.868090850152435 5.549306277186804 -80 45 8
119 0 1 0 13.720188844422843 5.795191953111122 6.524617899326772 84 -30 -7
89 0 1 0 18.4630573758391 5.283194918810552 7.212464793878293 112 -2 0
91 0 1 0 14.080016115668863 2.794699242757665 6.637401015592356 63 -7 -1
212 0 1 0 16.432175072957804 6.626919238196253 6.353283906642423 -15 15 2
9 0 1 0 6.280152666598937 1.3819464318653647 6.276128146010929 -274 21 -3
52 0 1 0 20.317525361973118 2.9115366911754395 6.5297013898214304 73 -42 -9
35 0 1 0 13.466770929768368 0.004583217524307459 7.135375667312555 -108 55 13
42 0 1 0 4.619892427300179 0.2002206874386223 4.930699538601713 78 -25 -5
26 0 1 0 17.54009827888399 7.469325548726366 4.074286670901207 78 -4 0
150 0 1 0 11.07478016387059 7.0596077591067985 4.718585626339576 306 -39 -4
75 0 1 0 19.49799751874491 1.9249986609225616 4.147358207617295 222 -27 0
11 0 1 0 11.924335863306153 2.095070796535127 8.315708611771761 -1 18 7
36 0 1 0 21.344947341929895 0.6695338572305705 9.25809865358504 0 -20 -2
242 0 1 0 7.787589976003888 0.34554084624522263 8.745746285427165 85 -54 -12
171 0 1 0 18.556017385262322 0.556565313513876 8.748544054499073 220 -14 0
87 0 1 0 9.13896909823555 2.9194376874741925 8.803507599668562 -10 -29 -9
220 0 1 0 20.17301870380819 7.571757925757002 8.13241995931396 -94 -40 -11
209 0 1 0 9.671496207282308 7.143162979849658 9.426955812844433 -84 -27 -5
226 0 1 0 17.80748374321542 3.0658694122446875 9.486668045950529 26 19 5
250 0 1 0 7.714591748531982 5.3410327819360175 8.116208483142648 352 -10 3
15 0 1 0 6.45931561720659 2.3950312169573964 9.29598877373799 20 -29 -4
237 0 1 0 16.09587481541962 4.209303838185171 8.00619977108532 -33 10 1
134 0 1 0 20.569083204476463 3.8257603318924476 9.244647067720585 243 -23 0
38 0 1 0 10.993847550505476 4.505020787727643 7.397384464030461 -75 -18 -6
1 0 1 0 13.718304016633992 3.966869170027465 9.495371608275372 -46 -20 -7
180 0 1 0 15.665873657424418 2.524856719650389 10.658476195778594 -84 27 4
142 0 1 0 15.808180832774232 0.8885188933537362 8.227143839271672 -164 22 -1
214 0 1 0 15.310248841238957 5.809103716221213 10.34749423757394 32 -8 0
76 0 1 0 16.89431191131134 7.7104973591712405 8.568773003322686 -46 0 -3
208 0 1 0 13.5016931058562 0.7118237839429316 10.003113593953875 -79 23 5
132 0 1 0 12.730755484856603 6.542343542594914 9.706856356895976 90 5 3
72 0 1 0 10.32134450329769 -0.0652676720375126 9.14215855651965 41 35 8
30 0 1 0 18.2905259419473 5.78217412418633 9.870598876214377 -28 -13 -1
86 0 1 0 22.67553976910382 5.787510663020143 9.840168781235755 -48 61 11
223 0 1 0 10.66411234517834 4.954146405928848 10.665522372294694 433 -86 -10
111 0 1 0 9.382607354349359 3.1903989189513147 13.30810219652246 -92 34 4
136 0 1 0 23.705451732077663 4.540997210213174 13.373665063128213 -160 -5 -6
129 0 1 0 22.613047313318354 0.7419528516302942 11.477882420275563 252 -31 -2
224 0 1 0 20.274528065569967 0.2924889358632472 11.951377098890866 -119 19 0
172 0 1 0 10.597085673816139 0.34184766713880377 12.7123056713371 8 -12 -1
155 0 1 0 23.465861168551655 2.1170073634570636 13.557542697369696 -54 20 1
166 0 1 0 9.133776138115188 6.775149697879305 12.771639497784722 238 -44 -5
192 0 1 0 13.345135671308595 5.738508488403349 12.107920222864427 110 -13 1
176 0 1 0 13.348302928776492 3.0752685872384604 12.222384689719275 -38 23 0
10 0 1 0 13.379716179022045 0.5471414670684498 13.08418394916997 -257 3 -1
115 0 1 0 21.935045907997406 3.7399666474955913 11.530761249425884 -61 -15 -4
90 0 1 0 21.08644609346974 5.329355402905895 12.886376178372403 156 9 4
47 0 1 0 18.316917018253854 -1.0604759845435798 12.474780592249965 111 -28 -4
69 0 1 0 15.849338462322104 -1.0009796072132142 13.291232197368368 98 -2 -1
160 0 1 0 19.259010739895814 2.9693202643759733 11.547929354301878 -44 4 1
49 0 1 0 16.56631986408363 4.396608760975837 11.950590311822086 -54 57 10
175 0 1 0 8.405126118030378 1.6446445874019595 11.253174974269587 -26 14 1
33 0 1 0 18.353093463891895 6.2653931732437576 12.739381557454287 -95 -49 -12
55 0 1 0 11.105010599727462 5.325993026762169 13.866459427161479 -66 85 19
229 0 1 0 11.006868764689747 2.4222418182676146 10.761815609578958 -132 58 10
98 0 1 0 20.716289605635723 7.526005788723759 10.988733564643363 -118 68 14
233 0 1 0 17.153719133899088 1.5008475387063729 12.509584289996315 -188 21 -2
122 0 1 0 19.47353089905151 1.5307349158107066 13.979338636483003 125 11 5
5 0 1 0 15.568763367826131 6.088613459163238 13.465323940655203 -177 44 4
20 0 1 0 8.261706292409198 4.756391450315828 10.958339851321071 -166 13 -4
16 0 1 0 16.24390449613076 -0.03776471816133464 10.784076071252926 -133 47 6
18 0 1 0 24.696045819889896 3.2047384113921384 15.624012323423486 -158 42 5
200 0 1 0 23.76582493831959 -1.485383271359277 16.031037285692825 29 -64 -13
27 0 1 0 10.580428056558413 3.269214588124112 16.315040419012668 90 -12 -2
56 0 1 0 21.751792112876736 3.4516259848883766 15.146079123245991 128 -3 0
168 0 1 0 14.531398356259517 -0.5706314974936442 15.864151413636613 118 -15 -3
199 0 1 0 25.857642490273342 1.0322077246053256 16.911842723092093 -85 25 3
131 0 1 0 12.45190792572652 5.355716314461264 16.134727891532144 -8 66 13
187 0 1 0 17.518578833868332 3.9632486657591235 14.45510175758038 -11 31 7
188 0 1 0 15.42601759962774 4.706941557331266 16.191656397638866 264 5 4
138 0 1 0 18.009935207501314 -0.8970952515313289 15.13374408169924 181 -51 -9
21 0 1 0 15.754606183456252 2.065677115378019 14.900193827134574 163 -18 -2
190 0 1 0 20.00143343002857 6.027444570361128 14.835915464493636 -109 27 3
124 0 1 0 13.418182753099495 2.22797028436392 16.903059786651518 14 7 1
8 0 1 0 11.91099024443188 -0.5629294472260107 17.03415197392993 -46 -37 -9
201 0 1 0 13.474965011895828 3.58866139162743 14.593487930821684 13 -13 -4
23 0 1 0 25.806130074842457 5.6387029089625145 15.277374580349658 71 -13 -1
247 0 1 0 23.704058929624146 4.999089201706198 17.21089363464332 -83 9 0
97 0 1 0 17.688041835602235 6.065720215767977 16.852759147678547 175 -61 -10
107 0 1 0 22.859922290899263 6.292858667880952 15.180975375728451 -58 -5 -4
140 0 1 0 18.076947605762882 1.3583820806550229 16.398695108004517 -47 4 0
197 0 1 0 11.459125184953235 1.0110443160100493 15.0165843227436 56 10 0
152 0 1 0 20.67924825718854 0.24897057578429416 16.082747509285248 -57 -4 0
256 0 1 0 19.67226503081045 3.5118691846828187 16.42844565621502 19 10 1
92 0 1 0 23.03335334720694 1.2191273002982403 16.045324597630334 6 -63 -14
53 0 1 0 8.589582082711068 0.12158213845616106 14.158471236009374 -97 -64 -15
48 0 1 0 22.034723826342486 0.08480914987770816 14.046943804201993 -15 -10 -5
148 0 1 0 10.070422928319175 -1.4429881604292922 15.304904564676626 75 4 1
77 0 1 0 18.10611735614731 16.04473329736799 2.857577924315931 95 78 18
196 0 1 0 13.587498097208245 16.766615714001034 3.1404250568356136 -14 16 2
170 0 1 0 4.343259844837298 9.731941291984237 1.75542967852885 -33 58 10
85 0 1 0 6.657733195947217 13.782995140887493 1.3261784846685019 59 20 5
186 0 1 0 5.979646941933715 16.815536126855278 2.3703998960791335 -78 -9 -5
94 0 1 0 10.760445156312421 12.185712937406329 3.013541389939596 167 -31 -4
234 0 1 0 16.942954560809923 10.42362715162067 2.4955824750521978 42 9 4
205 0 1 0 13.19879295560495 13.335061121808724 2.645081234852795 86 -5 1
181 0 1 0 17.63881100376004 13.476287211971842 2.5009545136444444 162 6 3
137 0 1 0 15.573539103437454 14.971517273176447 2.5297808949055662 109 -34 -3
123 0 1 0 3.7480358539540672 14.788467553611385 1.4968100688774464 191 -16 -1
236 0 1 0 19.253386355975202 9.23628857117503 3.617009604653641 -8 18 4
2 0 1 0 15.32729068003479 17.242263466112085 0.7643734069512967 26 -7 -3
161 0 1 0 20.033736767199684 12.30424015473347 2.286808344160418 -20 13 -1
78 0 1 0 6.284558671950158 11.848973002901266 3.074576274613395 31 -54 -10
128 0 1 0 13.416435899468162 10.475891210075465 2.743303775914368 34 -26 -5
34 0 1 0 15.309589672773212 12.34169713445646 1.2141208112442181 -54 5 2
130 0 1 0 8.629855444299748 14.60396565857405 3.6108362158970344 39 -4 1
198 0 1 0 9.342387730270806 13.406101788887566 1.0863247733816008 -48 11 3
63 0 1 0 5.4783329551472 14.416212070205715 3.540104823548902 -26 -10 -5
255 0 1 0 13.735997356017927 15.11939878187706 0.6414759661863967 -8 -85 -17
125 0 1 0 11.165805230885246 15.14631637379521 2.42246625497293 21 9 3
51 0 1 0 8.760667797686306 10.365262472203172 2.261604257037959 68 -17 0
251 0 1 0 8.710676271297979 15.702929750826135 1.1905184239631041 257 -60 -9
179 0 1 0 15.889792072179075 9.508424934885863 5.227389753204747 13 -29 -5
7 0 1 0 11.267534840784393 9.770795051798585 6.84297498123486 214 -35 -2
147 0 1 0 20.766096634799432 11.621328476975826 4.712567878400727 -169 71 9
83 0 1 0 20.502610433874736 10.137592038699808 6.800493216979062 -163 -16 -8
159 0 1 0 16.172842422609712 13.339498816562056 6.959271407506013 -66 21 5
25 0 1 0 18.032932923964275 11.769864546186138 4.840545052008794 16 -9 -5
81 0 1 0 16.919000536004617 15.069802624514143 4.861764895108209 -66 38 10
80 0 1 0 8.366767838639241 11.860270229790869 4.735490160093141 -80 55 9
245 0 1 0 12.870523784873876 12.173672621492216 5.134314763832199 59 13 2
217 0 1 0 10.289780882397594 12.347871080883044 6.171877837196748 355 -33 0
84 0 1 0 7.656556038259339 8.79109077556375 4.215141979486381 -166 80 9
109 0 1 0 19.734196112507824 14.19151680382613 4.120102805605331 68 1 1
64 0 1 0 10.399472775837976 9.73204086397826 4.474673975638344 183 -4 3
61 0 1 0 9.705453963044826 15.307931085236552 6.193214970327927 203 -15 -2
67 0 1 0 21.902176092684037 13.909895179357049 6.0663787766947666 -72 10 -1
207 0 1 0 19.329478631019164 13.264434253918774 6.760586381380319 -301 52 5
37 0 1 0 14.148385910527498 15.176452655895341 5.902540561429065 121 -11 -1
213 0 1 0 15.664845768573848 12.493025327495204 4.1013733840333835 -126 5 -1
59 0 1 0 11.785788941655573 14.160699195675708 4.920940779345432 -95 43 5
167 0 1 0 6.29900692776413 10.827130312877655 6.236511940554135 129 19 7
195 0 1 0 18.111082620622632 8.715505260250676 6.3513149385016625 -87 -7 -3
126 0 1 0 13.264753645687057 8.585288328184628 5.015039286329978 27 14 2
46 0 1 0 19.02102198481412 16.129169439153344 6.055568540918858 62 -39 -7
231 0 1 0 5.263615050599801 9.138683693235887 4.336992536879594 -57 -53 -12
169 0 1 0 23.550837224077625 15.337246784547347 7.148176042744955 -192 49 3
112 0 1 0 14.181442328271446 10.71864434953126 7.190457855484437 39 3 0
249 0 1 0 20.60558169171972 16.738476692382164 3.976973922367594 197 -42 -5
121 0 1 0 14.174992475939165 12.161535061940597 10.524491186258654 2 17 1
29 0 1 0 18.48903067618012 9.568452142246409 10.16156706481175 31 -46 -9
99 0 1 0 21.59642729991046 9.91110770795047 9.325250611650961 31 26 7
158 0 1 0 22.73024968214181 14.46409445192117 9.320912252312338 17 -17 -3
24 0 1 0 24.22885550800566 8.025587674819707 10.457243154417416 -172 -21 -9
216 0 1 0 16.941197132542626 10.827776988049676 7.612884169364549 40 45 9
70 0 1 0 19.040380087201385 11.829603444666725 8.852428000981199 -64 20 2
145 0 1 0 9.845764485091015 9.692564743873165 9.837973654120809 142 -15 -1
202 0 1 0 8.767678025214876 14.646779212298824 8.89239077398136 -108 -22 -8
143 0 1 0 17.567769558057456 14.941389290750827 8.672288269153073 -229 22 1
57 0 1 0 12.372955687065085 13.577646378383204 9.885981271836961 81 -19 -3
82 0 1 0 14.802143132805343 14.651323643999818 8.660167917702148 -54 18 4
173 0 1 0 20.699039461269045 15.185869150127745 7.780974847140522 21 -9 -3
62 0 1 0 12.729503542368553 9.976486823628761 9.590437701302251 14 -16 -2
230 0 1 0 10.74077528068167 11.994245272802257 8.44056687198555 87 5 1
178 0 1 0 24.27602279244016 11.15353631834897 10.31585258308895 207 -44 -4
39 0 1 0 16.639639165206994 12.525491448036952 9.937235078383996 -4 4 0
225 0 1 0 21.817694179658105 12.262340347743026 8.236981548216589 52 14 3
164 0 1 0 11.490492576542275 14.76207140707343 7.948186310054987 74 -19 -4
149 0 1 0 15.515836700507899 9.634222620528401 10.018805897468823 154 -74 -13
45 0 1 0 7.954993024340952 12.54388951869032 7.610405705163927 -15 -21 -5
108 0 1 0 14.418457153892344 8.28767750082051 7.54530822943531 27 0 0
54 0 1 0 13.206080808730947 13.17166138338384 7.388435215657973 22 -33 -8
44 0 1 0 22.732272386906473 8.060068395154142 7.852040952450751 -134 64 13
163 0 1 0 8.17060505540107 9.547738114054594 7.996379934924973 -9 1 2
210 0 1 0 11.389102480858993 11.36904447415325 11.397920785946546 252 -6 5
191 0 1 0 20.56835617592371 11.39644647856641 11.015531046973523 -105 -23 -8
79 0 1 0 24.508845604910505 15.19631452064503 11.26062845290995 66 -8 2
104 0 1 0 11.039222903543248 15.775324967257545 11.236008671420581 -108 88 16
60 0 1 0 13.568114293052728 10.652506581490126 13.016074327078535 165 -26 -2
141 0 1 0 9.707432379672708 13.213517313419228 10.855947823177107 -108 -6 -3
32 0 1 0 17.237479069163513 14.996999864122486 11.308010143514405 136 -19 -2
227 0 1 0 15.111708074818798 12.977251936406118 13.208083256081528 174 -33 -3
14 0 1 0 18.925603631262156 9.251548963861259 13.02108424634099 1 -15 -5
144 0 1 0 14.443316848804209 14.88258364503416 11.230901753402112 -15 12 2
101 0 1 0 20.21110278479754 13.599616536265392 13.806855636653196 -48 -31 -8
235 0 1 0 14.111436860706055 8.319580058913903 11.785524883999084 126 4 6
254 0 1 0 26.32428893441061 14.78774773302849 13.506261253532632 0 8 1
248 0 1 0 23.06908607692226 7.330861518706167 12.612417604295473 22 38 8
241 0 1 0 22.47218864186531 13.258024970181006 11.797729910201166 -54 3 0
194 0 1 0 24.31616347213548 12.88103103460834 13.28405090839379 -36 29 3
154 0 1 0 22.71809988919884 9.756570029754418 11.811887745211544 -159 28 3
156 0 1 0 16.29710789497312 10.832647332994071 12.107948945246346 24 42 12
40 0 1 0 18.190236383361572 12.198510029220074 12.885636998525646 1 3 -1
162 0 1 0 11.211652372838616 8.260116154260572 11.997239698390178 -239 -20 -8
240 0 1 0 25.63484947660139 10.22470685899116 12.54075492135292 -186 35 4
118 0 1 0 12.352143104397571 13.696998974889498 12.813949505587393 45 11 2
71 0 1 0 16.71992160218504 7.89835001018147 11.940227747080604 119 0 3
204 0 1 0 19.662026662728763 14.078761895737605 10.852453662549742 54 36 6
105 0 1 0 25.207504335415848 10.983122426501215 15.522887751535713 -158 9 0
157 0 1 0 20.553853131973028 13.38951550630366 16.524756314980248 -4 -41 -8
22 0 1 0 11.379411120360396 9.930073906405289 14.40386791187335 2 -11 0
100 0 1 0 16.573485337036708 8.925631063597825 16.750243589887532 14 17 3
153 0 1 0 13.327638639375744 12.055102448728952 15.117109855568415 71 25 5
221 0 1 0 15.033761116429334 7.076115473805965 16.183055782113737 -91 -31 -9
177 0 1 0 22.907439880137403 14.489093716650215 14.948545656754176 -295 47 4
50 0 1 0 24.010254453055012 7.471054155723552 17.211219678987483 165 -51 -9
211 0 1 0 14.106725339238025 9.697831430636523 16.793255355035875 100 -6 1
243 0 1 0 27.51339527067374 10.531928129452417 16.79964733154778 -392 87 10
174 0 1 0 19.396707258271192 11.075999075900915 15.197572488480253 76 -14 -1
139 0 1 0 26.443537259729972 8.450625821162582 14.86969081168569 -286 29 1
183 0 1 0 21.066856762113936 8.438875538577943 14.225099969661507 148 -42 -7
219 0 1 0 11.955529107668793 7.900058727558784 16.800689703218787 -43 -1 -1
244 0 1 0 17.87295731117667 7.681728583259719 14.783223510355324 -120 41 3
151 0 1 0 21.149652250593135 7.104879559681338 16.99047836583727 21 -41 -8
96 0 1 0 23.685988117845575 8.978163279584962 14.782655639304398 143 90 19
93 0 1 0 21.939932213314933 9.967806443113567 16.859274472702808 -1 -20 -4
110 0 1 0 22.410199075381712 11.298063369648974 14.379080775161597 164 9 2
218 0 1 0 15.209575229325662 13.518796663340288 16.576017898864727 143 -10 1
6 0 1 0 27.14933113145912 12.135612767855305 14.207770121285844 -177 1 -5
102 0 1 0 15.155680080872898 8.634149488727827 14.131899910065124 -19 11 2
113 0 1 0 19.208210810414762 8.825691291244556 16.75811996489672 76 53 11
228 0 1 0 15.942701940054244 11.160024789806931 15.078662542457641 -124 -3 -4
17 0 1 0 15.297746224264865 15.100371770944232 14.12804577378713 -165 -6 -6
116 0 1 0 27.539809494359645 13.152691365263367 17.144554812574825 69 4 0
222 0 1 0 17.2818649754338 13.690144894806132 15.229750569098027 3 43 9
185 0 1 0 12.800150529053338 7.429716288753105 14.36853691939918 -35 6 1

Velocities

13 3.041114007908448 0.4749777788443186 -2.5445950292730473
41 5.6973300149434545 -2.1824796688895183 8.299915933848201
253 1.4812268644202773 4.444908856422771 13.435989271855684
103 -3.280749060127637 -0.83866957070501 -6.713314027007058
43 4.567317708470665 2.340441125865566 3.4033260548651127
106 2.255738331987073 -7.937551915238232 -0.6198811865820182
65 3.191888860424124 6.054142823883692 0.7853805239922791
215 -0.8513037767086915 6.31985634603757 1.7187126428388468
238 -0.32001252571706695 6.757495909046934 -4.411596014347754
133 -2.715729877072751 12.325022816049966 -2.114382751693808
117 1.1652882695594668 1.8979570075702958 -2.0599832540371703
12 1.4307761516953137 7.6779708983663255 1.5185468963227493
182 -6.471170322209219 -3.755630230797529 -1.0543831576037206
68 -10.4722362405032 3.8154113061916712 -8.917994484211224
4 4.973736132678607 -1.001644538177953 0.4652843626781856
239 -9.89504372691567 0.9146763602473142 -0.9072591514863193
114 0.2560312568113145 -5.26886634191642 -5.66994192494037
146 -2.375923667153846 -6.679027521209301 -5.445217158083735
246 5.4373504020060714 -3.9390569383008325 -0.6672717587540256
252 -2.7963233408685966 -2.65871254637268 2.5866981918880345
232 -3.032102320105226 4.430979316240729 2.32942681633505
189 -1.02382781970724 -9.69938941150973 0.949790571461652
88 -2.190973546813718 2.351850852023615 -0.36434844543870304
184 -3.2769171536848547 -1.6618814987809603 2.1841033948126487
19 -1.4556187000948158 -0.6926383977038146 4.5803713716159775
206 -0.01753630087832786 -3.7776741318081837 4.7729846442504975
31 -4.308516778720817 -0.09240647969457064 2.3706179639198552
95 7.555915747654222 -4.628442843339099 -0.24185929781430204
74 3.5550206141415943 7.796783446914929 -3.292679901600527
66 -0.184609305644151 -2.804010924164958 3.711053802705289
135 -2.8180420522794107 0.5313304263422371 3.179872525611759
193 -6.307091563106867 -2.6382038721374412 -0.48458325333424873
120 7.305680281336727 5.888212377617183 -3.111955117149494
203 -4.15311195100747 -10.26636846148661 -7.543819772239556
165 -0.6725682763239526 -3.502821272821731 -2.03079409112415
127 -1.0971949432943036 6.6727078956102375 -1.9244748897838906
58 -0.6777330165480746 4.521261484827219 2.00207643274149
73 0.7451093962143768 8.803804786780253 -7.082248538704834
3 -1.5598745200280022 -0.5868831803142067 -5.4078713075340765
28 -2.92405067107196 5.957973254424028 10.380920846194664
119 -7.162346599898761 -1.8277480327024203 -1.8115209431554025
89 -1.9067895171723557 -3.8005017009221493 -2.0714564481746875
91 -10.362217659061132 2.641693628681896 -2.9975132300088863
212 -5.738162235514885 7.04097914678242 -2.7939031108457413
9 5.35420888083226 -4.822360595333678 4.272109123579743
52 6.600856687892495 4.228062472134148 2.529575016888803
35 -1.66781892778369 6.0847429583336705 0.9256120785617369
42 -4.317733745168522 -7.355477954337005 -1.9601367902625026
26 19.254082069818306 8.729186955305348 -1.925764747120126
150 6.526966528417887 -1.4981182483421527 4.138891493912585
75 2.0210647890385207 -2.0547458843877555 -2.9289832289210445
11 6.267384396102495 10.679614269941956 -2.9133804715361498
36 6.846920307351222 -1.8365559426294733 -7.412059527855425
242 12.100663532180517 -4.762904390865084 -10.928345861183411
171 5.5973748492133355 -1.0361218287599447 9.049305354891137
87 -3.0696757442778946 2.3031976641825294 3.482574818738836
220 -3.4727199119477405 -1.8752900809058952 12.048555480932723
209 -8.404134162685164 5.253802105393062 -3.282386970312594
226 0.054478028847967014 5.485318103461006 -3.69455624578796
250 4.150322262166613 9.582869132803092 9.100840214541266
15 -3.488114570733034 3.23814612844023 -9.187641279436551
237 -3.6145036603020935 -5.7134084370254525 -3.452436490789913
134 11.483075093304622 -5.6667326916159535 -6.950760242974402
38 6.6735826013968 4.749565981824181 5.656457869227674
1 0.0830489844435187 1.6129138160231926 1.122152252640783
180 -3.289201986821348 -4.266738122510135 0.4771471604144204
142 1.0260550615211148 -1.8295195681592333 -8.901803661412908
214 -5.187663768245061 -5.835013789535284 0.1708668617681432
76 2.582610121567976 -0.10166753739986396 2.6452210907840237
208 5.436771244267016 3.0710793383914057 0.04817708107718491
132 4.144906179575984 2.9656343510192 6.417798227900876
72 -0.8984668305549111 -3.896240834420303 -4.6215661843920435
30 -4.195944543789791 3.7368244711022367 3.699178392233795
86 -4.076284699630545 -5.494942319581233 -7.8322685319951875
223 -1.8979255018553634 1.5492145341597587 -11.085316056958643
111 4.928103769209901 -16.49103674905002 6.494571389356269
136 6.682571155546797 -4.208700072567892 -6.001141647568776
129 4.414496472992999 0.2451657558015149 -0.6122405712799646
224 -0.023666986215125516 3.3396589430340677 1.367807258656315
172 -8.726672056697184 6.459483474236029 2.7857281548193074
155 5.257460101484563 8.55661764932528 8.84407330184772
166 7.366768944714246 -0.5089466773774622 11.811061286464966
192 1.4231367963682942 -2.10955821486249 -8.224861493270554
176 -0.04382117418301475 0.26650487989286303 -1.0175130021767458
10 -0.6741715942742748 8.81977668659135 3.799973475767566
115 4.561887672582116 2.779436979065032 -10.593667085660973
90 -1.677513565697844 0.7305970028210095 -3.2609441495730525
47 6.793334604320968 -3.872887870675691 -6.988025472937642
69 4.515376365092613 0.42944210190957793 9.707821370126887
160 1.1219554679374886 0.10278711334817081 2.399145269639033
49 -5.389139636138622 -11.936433845506167 -4.689336190279815
175 -5.810313669994558 -4.357693958526083 -4.435321989913093
33 1.817470994728781 10.036400806683087 1.668359217177238
55 -9.630213400237196 -4.44176273096211 -4.754556823805734
229 1.154979574009961 8.544567241060378 1.6774387857974635
98 4.49625603639946 -9.634911650705709 2.993550998893617
233 3.1723181307295407 -1.7173255782752328 0.20411094794861082
122 -0.07093880915005712 -3.7816860435859363 3.1823670616762865
5 0.044507847461250305 0.7612768143408419 -0.5910773044667155
20 -2.4507006377366585 -0.5231319035894388 -0.7958482202711807
16 -2.2206494180263134 -9.248221485601603 0.35924119780485686
18 -9.204609555363287 -0.32116709342396216 1.1486276114917526
200 1.8362053210253646 3.8042979814976836 4.322551760872136
27 5.832040231019997 0.5429248137908715 -4.05854777784943
56 -4.116083134305612 0.15445226773853987 -0.530414170958968
168 6.683880364552136 -11.062965210413218 -0.5885683864198687
199 1.0591684384678681 -7.611603321675818 2.8746548412870467
131 6.4396622629760865 2.3402743877120917 -1.5418899432902866
187 7.636761124936492 3.6364575621027946 -3.3766904419709025
188 -2.5631021650289587 9.326564673911724 1.6935591126974423
138 -1.5657273376664635 -2.38313384638471 -5.163083039686553
21 3.144053231378041 1.7391260835967097 6.245293711731148
190 -2.001505550361782 -2.750845442184528 -9.152211196882776
124 -6.748941029213827 6.729011864985589 -0.03024887517836547
8 3.7676641837461573 5.189808231941917 -2.9886125078144508
201 -2.4202644030316756 1.567039901914497 5.329663866627518
23 4.120183345460956 -1.6679605266461337 1.459011249953881
247 0.09503845921862845 -8.48066456545498 5.7841578208127675
97 4.648501596584865 -1.071438623801416 -1.5671163206579473
107 -10.820405918865244 -3.3412253651058283 -0.4130134578362553
140 -3.9903042738223378 6.454802993697155 4.971214302248335
197 -2.752622419404517 -5.692348370064977 7.157002197406008
152 -5.3247528483058915 6.041484592906001 2.7375493633448995
256 -5.9491560321793155 -3.481549699938505 -8.208065369955511
92 -7.205311637193114 2.3320746604914047 0.8380320991041378
53 3.7689006166859738 -2.2831340325557963 4.150055990098111
48 9.030797185224891 1.7126898965766932 -2.785889061020347
148 12.041384834680546 3.8349946584394705 -4.463402311050108
77 -7.111506518379451 2.022570232244801 3.409579679105173
196 1.5834520884163783 4.454180017194913 -7.967529142296543
170 -0.8301233801505051 -6.31465452704429 -1.5738446848871348
85 2.2237920290650437 -0.9861984018416936 0.13415489547390436
186 -9.846331712573164 2.3038606436210256 3.336050807903955
94 -2.8204093500157317 -4.11360180368481 1.4540700761266176
234 -0.4898176095104734 -5.959983161108165 -0.5670984920116471
205 3.354683157587634 -6.734932499365311 0.4583362701335437
181 2.09885467084978 -6.332171605707237 -1.3148442345521574
137 -2.889322939473714 -4.361594833486872 -1.0846388457203033
123 -1.1019862814320522 -7.270529951371911 -0.35678274771578444
236 -0.8597279907284205 12.048354678506476 7.383899570578693
2 4.265263720794784 -1.9757274473271258 -4.611879477800995
161 3.1907918430388524 -7.378340955911844 -2.6655639566365377
78 0.30625241019315946 1.1477862035827144 12.467623821348594
128 0.8202061195619934 -5.715064171124393 -6.586728997195878
34 -4.34072655295165 3.6753856258182322 -10.599532227216924
130 -3.4067463324188973 8.518377395165722 3.3155782277305437
198 -2.5868238692167087 -1.066804077678876 4.264633614407481
63 -3.7890406063600786 -1.5270278559010604 -1.9717992571184826
255 0.25689069806555337 -2.1993553473580953 -1.4091294337746572
125 -6.516029971287704 -7.880911146562729 -0.18389249820063472
51 3.1507208400468065 2.8992338254445893 -8.10562366447485
251 0.653364423790499 8.5257303457028 10.034846419384053
179 -10.123762568915566 2.311145985351597 -1.4143400270227464
7 -4.775924357041614 -0.5121562272101282 5.18068006827346
147 11.241418959078922 -5.172310124009073 -7.013618927277657
83 -3.7079934871592197 -4.25889658621655 2.940713133172894
159 6.099994950418958 -8.747049459567073 1.3592329710556716
25 2.7448667822870125 -0.16593885043666343 -0.5077699361947099
81 1.0967564979127498 7.108507063087677 -9.997121130871296
80 -3.381918769755245 3.0292252961026147 -0.9542784319235439
245 3.2760715690585656 -5.360525150342952 -2.1171233996452794
217 -0.6005339935841889 -4.942227249827694 2.173144624422692
84 -6.184556200136785 -10.271032404762506 0.014740706613732835
109 -4.300965674409982 5.406200939057385 0.6965916189623285
64 3.7894409581693864 -10.879511225170392 6.801570834163034
61 -0.9323497134174654 6.513001170465882 -1.7498360573813017
67 2.832325602816241 -0.08132596504157671 2.5040012425695455
207 9.165499481333232 0.974036955518055 6.9672442430028605
37 1.4661929212678722 11.289042429521569 1.6457144017402554
213 -0.5735447136639199 0.9611683271953392 4.298002866712751
59 -5.268046566748269 8.110534297085538 -5.574769711107622
167 8.065297139622851 -9.239431981097727 -7.4701436953796305
195 -1.5387191636303479 -3.033401094720863 5.291817633291467