LAMMPS data file via write_data, version 27 Oct 2021, timestep = 4005000

256 atoms
1 atom types

0.6123773254566043 17.387622674540694 xlo xhi
0.6123773254566043 17.387622674540694 ylo yhi
0.6123773254566043 17.387622674540694 zlo zhi
0.706625276303452 -3.588568324605241 -3.1625960069932506 xy xz yz

Masses

1 26.98154

Atoms # full

192 0 1 0 3.7025359140585365 7.152288496290132 3.1946393282988867 234 -7 7
201 0 1 0 6.259252684077292 2.2347746006019857 2.831213290245351 -112 6 -7
20 0 1 0 5.617008740337258 7.372767439274217 0.895333217926676 -111 3 5
243 0 1 0 13.80452372616894 2.864016832053338 1.9339422275974523 -371 23 -3
195 0 1 0 10.379480063439582 6.626725688405408 3.205482546770097 153 -14 0
103 0 1 0 3.9255257964891377 4.622076256876808 2.024658568470406 -254 11 -7
111 0 1 0 11.422443884211837 3.9734857473114165 2.8947339956402782 406 -29 0
179 0 1 0 9.197957380050374 2.719109453452882 2.791829872239394 -427 -44 3
249 0 1 0 11.394283071987855 1.9989997626671214 0.6339758587112134 100 -8 -4
37 0 1 0 8.925216171070057 5.910999997840941 1.4166995270453628 -274 21 -7
2 0 1 0 7.537829563569525 0.765465397243158 0.900711183400916 -257 11 -1
95 0 1 0 15.193262685622608 5.1577696923221135 3.367256097867017 119 -11 0
226 0 1 0 14.33479679934635 8.120592485521126 1.1796284670521668 -60 5 -11
71 0 1 0 7.402939986609386 7.280508140855921 3.7374460406762537 -196 24 0
42 0 1 0 12.875281510507355 5.996034357438839 2.4458321469737365 -44 -3 1
39 0 1 0 15.756879374420674 0.323797062469424 3.7222593957741963 252 -24 -2
185 0 1 0 1.1508346015336386 5.9433745494180625 2.5016501612062445 -170 19 -4
160 0 1 0 2.2929733037854447 8.073038395519173 0.7763706308880914 -371 30 -3
174 0 1 0 14.658823744143753 7.640454648387443 3.7653967555216408 -73 1 -9
32 0 1 0 6.050408902619201 5.245276871651592 3.152615566582185 332 -14 3
83 0 1 0 3.250841726247948 1.3411903370232334 1.7620994777111134 -74 8 -3
210 0 1 0 16.363730752774167 3.9708239495476505 1.3807892376213053 -111 -3 -2
18 0 1 0 10.406351321525241 8.556769643478965 0.8660725782971808 -117 12 4
27 0 1 0 1.991065439851385 3.242198220860386 3.385772415330455 415 -36 10
132 0 1 0 1.5552703849026623 0.42728452183301696 3.272195155443728 -331 30 -2
134 0 1 0 5.514052787525335 2.6524861517709124 0.6669453943992752 -472 -40 2
237 0 1 0 17.087995668088823 1.2187300040811486 0.7032377664467979 -64 -4 0
140 0 1 0 14.107337028900979 5.274356348374478 0.6261897129644954 222 -30 2
40 0 1 0 5.367716581730174 6.070959498199698 5.591730223246511 259 -10 8
77 0 1 0 1.7496724562799946 1.072442275046891 5.798711903868611 -94 7 -2
149 0 1 0 0.5641361762847872 6.031938757539126 5.260882116798697 -6 -1 -3
6 0 1 0 15.306896741809506 7.902355020609159 6.26602563623224 358 -35 3
34 0 1 0 3.6170114130246387 4.737650836585448 4.82402796978114 -297 22 -1
143 0 1 0 10.678639209061432 4.6469450569582555 5.975818335272823 -331 32 3
215 0 1 0 8.99408114094581 2.353485570871089 5.524369435620541 323 -17 7
56 0 1 0 9.562484943348391 7.218737854264681 5.621633174289432 169 -19 1
93 0 1 0 4.196729108704463 3.018500470766355 7.000148511783096 42 -5 2
98 0 1 0 0.9997519222645816 3.372159061724341 7.0283378598045125 447 -26 8
57 0 1 0 12.66302046434793 5.743151735228338 5.16432737212411 228 -9 2
9 0 1 0 11.528682519529326 2.050546195558844 4.688569996764182 83 -3 0
152 0 1 0 14.07374946219199 2.4895949827108605 4.595740803723583 55 -10 5
171 0 1 0 8.511021528891717 4.631157101107806 4.121787510454662 272 -17 -1
184 0 1 0 13.648486719750023 -0.11172531310505518 5.964201613013424 -480 -43 -2
168 0 1 0 7.614861244182559 5.5062025596060025 6.847663266278405 -2 2 -1
206 0 1 0 16.02517587592659 0.8936043677822274 6.4170484382474475 328 -26 4
24 0 1 0 6.336965050735243 3.8545202874177953 5.310301098421122 162 -19 7
159 0 1 0 6.417102267355313 0.7164606749643629 6.408677511111226 134 -5 6
17 0 1 0 8.116391401647554 0.27833240937775655 4.10054829014968 -108 5 3
112 0 1 0 15.279235389390433 4.431133027127647 6.418709019427823 -353 -55 1
200 0 1 0 3.116403144071641 7.858307886464375 5.707915989266567 408 -8 8
238 0 1 0 4.025163957809763 1.7149448139487782 4.547664338605596 -226 12 -9
126 0 1 0 16.65161082677691 3.0414922807531566 4.203376627233636 6 5 -1
90 0 1 0 12.803681071805265 2.266647613828058 7.092166706733984 267 -19 -3
82 0 1 0 3.7303884878883267 -0.18269568137093395 6.580593161487781 292 -25 5
180 0 1 0 11.209464814619288 0.5064047849977251 7.174614762161024 -49 6 -5
153 0 1 0 0.7454492255511499 8.134451731508026 3.9888927207477294 235 -25 6
100 0 1 0 14.395762355326285 -0.16087209693905302 8.575969316355422 -110 8 -5
222 0 1 0 8.275473077242593 2.7417188208679395 10.436229214257562 178 -11 -2
67 0 1 0 8.809773272816182 5.45183983276978 10.572811517740353 -78 -1 1
199 0 1 0 10.539373912523065 6.151572275539475 8.193302373893847 168 -13 3
5 0 1 0 6.126165473800014 5.3832344919733 9.32403596052607 501 31 -11
137 0 1 0 15.740919630393009 5.2140959207848345 9.163042941757455 42 -2 -2
114 0 1 0 4.917591266094201 3.395516766427082 10.275555750102036 45 1 0
104 0 1 0 7.082806693707502 3.178611890812417 7.748552210542845 260 -24 8
88 0 1 0 2.299316687781178 4.8655807199398655 9.594594858555569 -59 9 -3
13 0 1 0 5.884925633647583 1.2249617023298185 9.034567415632234 151 -18 6
161 0 1 0 13.023953159493612 4.219694584751943 9.006379351533136 142 -18 -3
197 0 1 0 0.8183578122252311 0.06327115982723586 8.549513481625892 -139 10 -5
60 0 1 0 12.628537910037002 1.3947392827780023 10.427849782683497 301 -22 -4
99 0 1 0 15.260693364003243 2.637326695800109 8.569982648801524 -115 9 0
194 0 1 0 2.588560029001296 2.3598904219656456 9.288679806955608 9 -2 0
154 0 1 0 13.156072051144488 6.494498881236085 7.64773648576965 253 -16 -1
11 0 1 0 10.261537967892378 0.14219670569725795 10.000786079178418 57 -4 -1
122 0 1 0 8.843998586812145 0.6821533912320903 7.748139782449665 32 7 -1
156 0 1 0 10.3077473165451 2.735585668573 8.316456240866124 140 69 -12
183 0 1 0 3.4340146312408906 -0.8473461298041454 9.383142601831453 220 -7 9
55 0 1 0 1.367831897852767 6.294432517172421 7.778497575204326 40 -4 4
252 0 1 0 3.919943027584458 5.797249501618507 7.85779488938065 168 -14 2
167 0 1 0 0.3770043394490905 3.3830952622578403 10.562036111725389 110 -13 -1
62 0 1 0 11.36355952125319 3.994095386418981 11.332134757509952 -135 14 1
203 0 1 0 3.846053897938281 6.820847527371536 10.777133256856644 -74 4 -1
127 0 1 0 -0.846240096705422 5.596325942336436 12.657629887830316 -143 3 -5
218 0 1 0 3.3093861897904295 2.8938000794861667 12.224605381643823 374 -32 4
7 0 1 0 -0.47437941362445124 2.4092976506415114 13.161983970401355 -276 16 4
28 0 1 0 1.7765015547883682 0.8390930717541987 13.740467022777619 320 -31 -3
63 0 1 0 9.271429195834617 -1.1987928136945492 13.110307603211353 411 -37 0
181 0 1 0 13.134847294284627 5.320870283350919 12.92671705881593 -410 27 -4
244 0 1 0 6.248363075279032 5.166689354872691 11.982912666455348 476 -27 1
73 0 1 0 4.220688352364631 5.086902156490588 13.530625114112313 -50 5 -1
116 0 1 0 10.177267571984032 1.5446164964991622 12.049124300659722 -404 25 -7
165 0 1 0 -0.3513958053679651 -1.0983808085292714 12.383921542635377 26 -2 1
117 0 1 0 1.87930364887244 4.8962877382544665 12.361490924835941 -4 2 3
235 0 1 0 12.974803722838073 2.4743140946636037 13.224262451613287 369 -12 5
198 0 1 0 8.440383727145985 4.076920687782897 13.038725311696581 460 -34 0
102 0 1 0 4.256526775129748 0.24564039016660222 12.063394705264468 -425 37 -5
84 0 1 0 -1.4429001466778675 1.0178293460265773 10.727909939902363 496 -39 3
231 0 1 0 1.567827807661791 0.7675506605564544 10.971101439978954 -256 20 -4
176 0 1 0 11.728649166128337 0.00033013044833829497 12.436388937379771 32 -4 0
43 0 1 0 6.098700374710685 2.1398628254294034 12.424454511862768 10 -7 -9
72 0 1 0 7.388619039537568 0.17544300156262027 11.308709432652988 -81 8 1
135 0 1 0 14.559338500420395 3.362626459729979 11.195081353176457 92 -5 -5
115 0 1 0 14.34716552288688 0.44190584474993155 13.274239797462917 37 -13 -4
230 0 1 0 6.31272860566717 -1.2407050454855724 13.277902028149708 -347 26 -5
58 0 1 0 10.626796915421268 6.378255512781996 13.017293674980877 -18 7 -3
214 0 1 0 11.962217554924852 6.39695274512873 10.815708211660938 -62 2 -3
113 0 1 0 5.57398790419993 0.016893034141201024 16.920459252959354 -106 5 -1
74 0 1 0 -0.3412261775509533 -0.611479330724777 15.233686379812363 194 -9 3
227 0 1 0 0.6010495174959254 4.654751669310489 15.316427551119432 68 -2 1
19 0 1 0 7.789938854836057 1.4385630511107732 16.98528309830116 123 -8 6
146 0 1 0 12.927073545973885 0.7504355943366283 15.430415186521154 -147 3 -2
251 0 1 0 -2.0635121077152574 4.91186233820738 14.856565483968264 111 -14 -3
246 0 1 0 2.5080277143896335 3.2924355137462853 15.018103194337943 352 -27 4
191 0 1 0 4.455008893681318 1.3728732780747017 14.482338598505178 400 -29 7
46 0 1 0 0.7462281552277745 2.022685765471931 16.281316884791714 110 -8 0
204 0 1 0 -1.3607277260423998 0.3981622353584595 17.212565524402017 -345 27 -2
158 0 1 0 10.140249665019526 -0.2489178175276754 16.011882409574675 397 -25 4
1 0 1 0 3.338040227915397 1.729359237404057 17.141126833859254 166 -20 -1
101 0 1 0 6.253680230066554 2.9884156952914513 15.201063568372396 84 -14 -1
147 0 1 0 9.012210272178852 1.5941009806545625 14.190823483645111 421 -30 6
64 0 1 0 10.861173546797064 3.952233164312815 14.905478771987454 171 -7 2
254 0 1 0 3.7507787876001664 -1.04842169423381 14.879409993545087 24 -12 -6
8 0 1 0 8.502632485538022 3.967364684428164 16.269756524869138 308 -31 -1
130 0 1 0 4.615508368006065 4.380912371053462 16.453504772085104 45 -14 -4
173 0 1 0 6.712993971283511 5.731828660925485 14.688593382970662 495 -38 0
15 0 1 0 -1.52864609929154 2.5196468240441625 15.771302123354392 370 -25 4
224 0 1 0 12.092263960954933 -1.661179525063452 14.701981526790238 -166 11 -5
81 0 1 0 7.509122585021624 0.04273458331202429 14.829509949841405 338 -24 4
121 0 1 0 12.965727779775165 3.3626946346664637 16.636501546192946 -39 -3 1
38 0 1 0 9.249940195979894 14.972586923885725 2.81277503122383 -166 4 1
75 0 1 0 11.951698729587045 13.906336753089697 2.5426608352840985 278 -20 -6
53 0 1 0 3.1637311327777686 12.913734266996386 1.4301508714286442 -111 7 1
29 0 1 0 10.000479508400941 9.423190494450422 3.7898439445612953 35 6 -1
76 0 1 0 4.81952341441769 11.367621084199751 3.0249700073517904 11 5 -5
207 0 1 0 7.650723075338403 9.5286408018662 1.5250264519370311 -283 24 -8
166 0 1 0 2.686721542051811 9.863761968118913 3.0136668796296497 117 -11 5
170 0 1 0 17.35794370188472 12.094900035929047 2.0283177657829183 188 -5 6
155 0 1 0 12.205455040482823 8.644126276026938 3.702950459274723 -293 22 -1
151 0 1 0 5.868404632734531 13.748899169647814 2.02760377604345 -182 17 3
59 0 1 0 11.069842648703577 16.884544872278433 2.235204203201347 -215 14 -8
223 0 1 0 14.61393658329708 11.611924148388098 2.763874684303778 121 -13 -1
87 0 1 0 14.5631142700611 14.568648871221844 2.2490593425441867 60 -5 -4
45 0 1 0 13.000523679900242 10.193132857318862 1.7796887844378955 133 -4 0
211 0 1 0 16.54247102373573 9.29841376227958 1.776417803259722 30 -3 -2
85 0 1 0 13.523643760675444 16.79764257018084 3.1993233564457064 -48 6 -2
241 0 1 0 10.333748467649125 11.175361663109822 1.950934732157467 -265 21 -3
253 0 1 0 7.946021474196049 12.40055231461982 0.9835661601447576 -88 1 2
68 0 1 0 17.35782716470561 15.342220956831962 1.6191888492791615 26 -5 4
196 0 1 0 3.474638989834236 15.508623300855778 1.6548434272751702 138 -5 1
118 0 1 0 6.402869652788666 16.294435370252344 2.7307013672322893 -162 9 -1
189 0 1 0 15.115330776292017 16.993999761411374 0.8539654590596388 81 1 6
97 0 1 0 2.5746901232344865 12.740968995546456 3.825762310417998 338 -30 8
125 0 1 0 4.19457181208208 9.70181727047793 0.8924691295449652 -56 -5 -7
54 0 1 0 16.176240235520737 14.493887200312864 7.02852390968479 476 -39 1
69 0 1 0 1.4764389774185869 12.481258049082106 6.4328954882026705 -485 -44 8
212 0 1 0 10.805271171821332 16.196678984355234 5.125330757476811 -168 5 1
202 0 1 0 8.463661032972919 12.16980660560722 4.085693473387411 227 -9 3
220 0 1 0 12.344498177849069 11.437623709082471 4.3584557422681875 174 -9 2
107 0 1 0 14.229137192456843 14.30091242929029 4.675030509801011 -109 3 -5
182 0 1 0 12.118825627136976 9.026155403512648 6.417537308169867 309 -28 5
209 0 1 0 14.752356016928843 11.949866226999255 5.990791332504134 334 -33 4
141 0 1 0 8.238456030692177 14.936300256776033 6.597977997231245 -170 -63 12
131 0 1 0 0.24815075195667735 10.728865811121352 4.512879905368973 212 -18 -2
41 0 1 0 3.975754110651931 12.980120339260422 6.430579495167155 233 -23 4
23 0 1 0 3.509172206702864 10.699267866744975 5.615376050530997 362 -26 1
78 0 1 0 9.92539584856774 10.861224630407126 6.132942845030584 -154 17 5
229 0 1 0 6.044587143781608 14.135871441712188 4.719468346016205 115 -8 2
92 0 1 0 5.081275536046856 9.04812549690812 4.718731939839217 221 -22 2
164 0 1 0 6.265460827455967 11.530755791676185 5.758466555435333 -414 -46 6
217 0 1 0 16.556824797868657 13.518331022943968 4.563880935899325 455 -27 9
236 0 1 0 7.618158106342284 9.506440266660414 5.894802400175903 -59 10 -3
221 0 1 0 0.8133593730614814 9.399653693742623 6.711930099883116 103 -7 0
3 0 1 0 10.581811937132942 13.25260858825658 5.127432995995264 -273 10 -7
169 0 1 0 1.8828927433393714 15.158825323004391 6.151164713430866 22 4 3
157 0 1 0 12.898718093801813 14.027900661028038 6.541005231867653 -503 39 6
256 0 1 0 3.787308284385061 14.972110643203763 4.4358854652156925 170 -10 2
22 0 1 0 6.938824439272745 12.582666581104869 10.258919225306398 -218 11 -1
188 0 1 0 7.9332442632820355 9.804666535244637 9.072547298861474 11 -2 0
225 0 1 0 12.803708170373659 15.094937517800512 9.533040127611342 -321 19 -6
242 0 1 0 -0.2630641388717989 14.387267895533194 9.79264211551133 -471 -36 4
49 0 1 0 3.1802917783021627 10.880323115898074 8.293915518782608 -95 -1 -8
10 0 1 0 5.793413749880585 10.653055097165623 8.07688444020982 459 40 1
142 0 1 0 14.781682514570454 10.248535908386284 8.005076864992567 -108 15 3
178 0 1 0 14.524656318103759 13.125364517104737 8.678815641651763 83 -8 -3
36 0 1 0 10.045230045538846 11.506140918579103 8.903292337203752 -135 10 -4
163 0 1 0 4.269107079444536 12.448643911369121 10.165815440378188 -75 6 -1
190 0 1 0 0.5256718743472866 9.808807016045735 9.472981157966657 94 1 2
89 0 1 0 10.428760348868694 14.33007222785053 7.900802656346952 226 -10 4
213 0 1 0 10.303392285114546 8.860859733734843 8.068227064579416 -385 35 -5
255 0 1 0 5.694893190088292 14.1142544406028 8.045803597100395 -421 16 -2
105 0 1 0 12.471087008346005 11.33515022338944 7.692338479231431 334 -31 4
250 0 1 0 2.5033856808351844 13.933098763085999 8.433129683656947 -269 14 -13
248 0 1 0 2.8964332559235246 7.9727842402652565 8.62274651211096 13 -8 -2
16 0 1 0 8.064388437746166 15.371895262649192 9.023520135038268 -273 22 -5
240 0 1 0 12.868844142672524 9.002288472317423 9.168463812925593 77 -15 -1
21 0 1 0 6.048786051038356 8.068829765597098 10.258285934994177 154 -11 6
175 0 1 0 0.09709798531701619 12.113300704752021 8.50570878505238 158 -13 0
205 0 1 0 12.68192815577852 12.431688407673766 10.512958595881123 -74 20 0
128 0 1 0 7.674718713203701 12.442983376630673 7.41112556301738 423 -32 0
138 0 1 0 15.998915722916177 7.98438392372907 8.802621083275081 87 -5 2
50 0 1 0 7.915023909221269 7.690231873039687 7.889129949144837 -326 31 0
232 0 1 0 0.6407806032161107 7.39731370514038 10.652128438891184 337 -27 12
79 0 1 0 10.474097778356205 13.766553364022052 10.63905960416821 -257 19 1
94 0 1 0 5.411135062744645 8.23398349802338 7.505967054209918 -35 6 8
150 0 1 0 14.394860216823814 7.2099458372552565 10.796994973449138 96 -9 4
33 0 1 0 0.3146412192715684 11.808156483854452 13.839432059867047 -470 -43 2
228 0 1 0 11.63951673754354 13.150777736404674 13.64206239215208 448 -24 6
136 0 1 0 14.977355413344908 10.042173809549043 10.899643449759399 121 -25 -5
193 0 1 0 4.423088975972811 14.095825839220742 12.85983269513956 -114 -2 3
172 0 1 0 2.538517305111248 14.706707340517713 10.988339153873403 20 -4 -7
80 0 1 0 1.6828178546762618 13.794683068897106 13.831605198078533 -83 4 -15
48 0 1 0 2.9599434238931512 9.687392065648064 10.716417791304847 169 -17 -7
70 0 1 0 0.5616677742639906 9.525119114926104 12.350339872107291 -135 11 0
145 0 1 0 12.43449801351967 9.247672175240034 11.88907588811979 -121 10 -1
177 0 1 0 10.132147258446034 8.568649156964604 10.77691264177257 130 -6 0
239 0 1 0 15.12648061504219 12.448517639701857 11.398155257330448 -190 23 4
208 0 1 0 8.401746885396735 10.643572388878292 12.017401952730118 -345 28 -5
123 0 1 0 3.8999977458475557 11.32831982053639 13.016526862569068 235 -15 6
12 0 1 0 5.029697225680051 7.635372809985217 12.82979873292403 199 -14 4
47 0 1 0 13.527927468076893 14.428300390107134 12.169678984412306 -91 5 3
61 0 1 0 7.865473008528281 7.303693782561856 12.523217400236884 93 -3 -1
25 0 1 0 5.63758785434092 10.367977503234451 11.54851600650957 -277 20 -7
144 0 1 0 14.962103217651412 7.872574790451096 13.381265776168048 -294 9 -9
247 0 1 0 8.521170477975557 13.355462533623944 12.490984947768988 -270 14 2
86 0 1 0 10.87380042846232 11.071851835138192 12.237390311233275 30 4 3
109 0 1 0 13.843495801128961 10.839139435906628 13.489192664929288 -433 -34 3
120 0 1 0 6.3938659034266685 14.85591183864908 10.72038663259158 12 -65 9
219 0 1 0 6.4164943065353235 12.232079645040045 13.737298023852881 129 -3 3
216 0 1 0 -1.4073928420538135 14.22741815651728 13.954913472368643 -196 20 1
108 0 1 0 9.500565021320018 8.67794854882826 13.999800592743062 -165 17 7
186 0 1 0 1.131753362997821 12.319041051762559 11.049248113329275 -102 3 -7
234 0 1 0 6.872406354369003 9.451501977015619 13.933525109696014 1 -13 -8
44 0 1 0 2.837431620840614 8.739575294702552 13.872931184237558 -157 15 -4
233 0 1 0 12.172119048002699 6.1716341322265516 15.880828184839398 -127 13 -2
4 0 1 0 13.943323779029715 12.86044585059509 15.596921310188643 -394 31 -2
31 0 1 0 13.603160396849567 10.213358032351781 16.461554135377426 19 -5 -8
139 0 1 0 9.314666027873804 6.613370775427892 15.509994132718152 154 -17 -3
124 0 1 0 0.9631334035868018 7.204539896415154 14.457119568381701 287 -30 2
91 0 1 0 2.546246367007299 6.279790718814777 15.944169308293105 -44 2 1
66 0 1 0 2.5554112869319083 11.143237364748328 15.46046530531679 99 -7 4
51 0 1 0 6.911736902631546 14.002856999560713 15.78986127165389 -329 31 -4
14 0 1 0 3.57919524318811 13.367813507650633 15.44205806216215 -227 16 -9
133 0 1 0 11.254494646704108 11.633447464753612 15.763455402668804 121 -10 -3
187 0 1 0 6.839410057730523 10.980757065926133 16.767785025943844 162 -14 3
129 0 1 0 9.275121498252604 14.042358164183765 15.04230782053369 88 1 6
106 0 1 0 4.962163295921052 7.548914529772387 15.70898899558839 -19 9 -2
119 0 1 0 -0.2624185187482566 9.608123375583787 15.332959928412334 171 -17 -10
96 0 1 0 11.878056459863089 9.214411713824967 14.701109730966028 448 -36 4
245 0 1 0 0.8755327058058158 13.488348713461706 16.207616059699745 -9 10 6
148 0 1 0 9.064807266480527 11.278328990288678 14.583061326372745 383 -26 8
35 0 1 0 -2.0533457166064215 7.857363087007997 16.586940952782943 -276 17 -5
52 0 1 0 7.286445950933616 8.501327928132913 16.12055589188344 19 4 0
26 0 1 0 4.924844900959625 10.481287862194293 15.304105017368707 27 -7 -4
30 0 1 0 2.049789948402831 8.75029366577113 16.785803245286452 -332 25 -7
162 0 1 0 9.528201312648145 9.656249589099131 17.03049874724246 106 -15 4
65 0 1 0 11.834178594361898 8.22811643067141 16.966040941829434 74 -1 -2
110 0 1 0 9.305919269747754 12.388502542126066 17.339785009801922 -305 -48 8

Velocities

192 4.396572336490507 -4.631446349176306 6.167836696452965
201 -1.6012845433335345 -1.8239372257815165 1.8625582893543413
20 4.071308478213358 3.0442469790875375 -5.310083244059957
243 1.034020710620801 0.11810527759553768 -4.41037934185345
195 2.0998357945939072 -0.8339701468572004 -0.9223168488278886
103 -5.701183663043 -1.3082222569665365 3.394557410493886
111 -4.473350627175754 -1.4960806350782034 3.414605349024449
179 1.3101435696871764 3.275347009006146 -5.278831578328118
249 -2.557612378015227 -3.5985944693736767 -6.385055021126921
37 5.979810889654617 -2.359861714121851 1.751634626325527
2 2.30954323809994 3.81486583216696 -0.2543996049575364
95 4.836111242545332 -7.995300432703729 5.750508514322436
226 4.3825781690200865 3.830187651138375 -4.74302527509277
71 3.3320360672977447 -5.859313648543646 2.4970150922323815
42 4.946311775854906 -2.2459141534734437 1.0655453228876806
39 -6.207112636465727 -2.0722127912906303 3.585859017428274
185 0.47827433552164805 5.474836950007024 -0.8370671277780294
160 4.414402644070901 2.1842847812590707 -9.285864039845396
174 -3.804891727685953 1.4135886300465306 -1.5384220824846488
32 -2.789388755328752 3.30576284944773 2.43746065111771
83 -1.197201779515751 -1.1209214758882997 2.1124378099056913
210 -1.6990193382860665 -2.6629962331995474 4.500426345184514
18 3.9592908849549233 -1.343488821816847 1.0923348444631173
27 -9.914447687101571 1.930963236830407 1.8484004216216743
132 -8.934330547796819 8.818932156042752 -1.381826115857755
134 3.1378663905469972 0.487043158452171 0.6099552475304412
237 5.8892952253215185 3.8442398361160808 8.433575413866953
140 5.102616550898647 -4.252441082005676 10.495221990141507
40 1.2019971478794842 -3.1090747944757506 -3.367593433303068
77 -7.294479551992281 4.5502176103801455 2.724201670366531
149 2.99785798650312 2.421975814943537 -3.1128047638571297
6 -2.5824247903775337 -2.3747493326286055 5.383360418621376
34 2.304333858922918 1.4436131005827297 -1.3566324951544853
143 2.3743707817076496 6.313861063203203 4.301901302523423
215 -1.646907892780349 -2.4829668925388546 -5.254852175691657
56 2.3602457831726804 -8.382226290122153 12.95183576120039
93 -3.243290989441683 3.9056781990614025 2.494105382528961
98 -0.7858264537863144 0.3505763353341653 -4.6912879069324225
57 0.7331981509546682 -4.033346875017218 4.544330455717909
9 1.9118097627651087 -0.15298852773857152 8.122145365512814
152 -6.198078743486704 -9.689659498301348 -15.084596412417179
171 6.895597491683424 4.713744847769156 -0.014292263094935989
184 0.10268035299309751 -4.248057267664234 -4.886171869704865
168 4.6286983674861295 8.38150149397395 -4.176150298798283
206 3.420233505499443 0.6843351667928833 1.7468023792482468
24 -7.001863766793426 -3.242764636481169 4.525094225466644
159 0.526595992153903 4.365844577596582 -6.233532549902923
17 -3.0580698422159935 4.072273189537773 -2.4308665764727797
112 1.7216038943762395 0.1945096411322772 1.06442030485093
200 11.86923680734402 -5.458663493490984 -1.9259352323957282
238 -6.792152746611536 -3.9334376316097557 -2.346918280083438
126 0.9149167636809166 -2.660231758111988 4.7186409957752735
90 1.0146040361552704 0.19354797710285018 -1.4935097350334707
82 3.5396768946538844 3.2011307623236456 1.0780778149923052
180 -0.004014573801331026 6.447303610333439 -2.1002137770279923
153 -1.6470914519327675 1.9712150702216706 -0.9137924586731957
100 6.052273256795796 4.5954296677202295 -9.974667697538651
222 -3.4927199375730495 -2.29797478914587 3.2957733179879476
67 -3.072583205089146 -1.8777008421755794 -0.08785042893457978
199 -2.792063620183767 0.05299144351999365 -3.099154547434533
5 8.587335006177637 -1.1160165546462495 0.3760158825811463
137 2.5913602872897097 1.849563777487151 1.4171364050690343
114 -2.5380845941497525 1.321655053086606 5.620432658104598
104 -5.637042802711239 -3.514354543005716 3.5293598905388177
88 4.1201055460143134 5.644853162105303 4.3380950690620415
13 0.7454482193004405 -2.0236463999267085 -4.774218090926836
161 0.55216373820516 7.3387839375121064 -1.0729843008778635
197 1.8623751576160956 -1.4604663313822293 -4.939063071098147
60 -2.253101959935773 6.618143636063122 -2.6820090925842157
99 -0.865837592803281 1.2896219254380847 -2.702557581925478
194 -2.2171478561731504 -0.6924056526197863 4.0613065385197835
154 0.9848139603951468 2.797787620511393 -11.80358746649167
11 6.68660185850617 -7.959128421003189 0.11951102637317491
122 1.4955016138608634 -9.356597475455311 -13.138142670835363
156 -6.070429672193997 3.0331280993745446 -2.68768289310765
183 4.946473347247536 -2.9076950668002612 12.39168249182891
55 1.0693388601432492 1.1242512938416815 4.045798260578293
252 -2.352942683136625 3.1465168747519274 1.6584188100201338
167 -1.8952342072424089 8.037475591925983 -9.851186550980497
62 -6.266377755750895 -1.4914377903299558 -0.15815357151511814
203 2.739362059289159 4.924938933809896 0.35556128248617214
127 -2.9827798774442633 -3.387953903146974 5.690191044480666
218 8.008563995310315 -1.313096174710561 -4.8363201679114525
7 -4.26867105468708 0.013971312184557305 0.2658024035729284
28 4.390177179481628 -4.4561382610064 3.4093356128811094
63 1.5819619109984928 -1.3704887316107808 -4.897115250595289
181 -1.8278362236218633 -9.772443053838701 9.734034518526444
244 4.22727058950439 -12.432844137829413 3.3302691662701527
73 9.767575886539221 14.575297276553744 -5.752382414246712
116 -1.927409627558105 4.977437651862347 0.7503897473587261
165 -4.38069849512085 -6.207354280665316 1.1136000833231956
117 -3.200705467663281 -3.7232409430196096 -5.389636837556142
235 1.8662956048818142 -0.8492572230917348 -2.8645382553386027
198 -1.885953933141839 -2.6871352800226354 0.008225283482116746
102 -4.7764507693253755 3.1486987951945427 -1.5072751333001402
84 4.21070892621132 -1.575683301347466 -2.762249277805355
231 4.895106255054409 3.8468080672400653 4.247266192947301
176 -9.216255747474209 0.582840123258752 0.09494163059997614
43 0.2117995555453208 1.607217182721817 4.2967741704302505
72 -4.954909165405821 -1.021648932736521 -13.218014967759522
135 -4.331144423009661 -4.563163250756789 4.159874640849154
115 0.7442527573062386 -1.4682075831192023 4.150858690963079
230 6.4174358155863 -3.5561780304140416 -3.9898973207342228
58 -9.835317339667842 -0.8911044877986313 3.0007828626136055
214 3.8749221147485113 0.9152851646017971 0.9487058921921673
113 -0.4942167895742208 4.244091417808327 5.342360052777107
74 -0.11733135708350201 -0.409862363326991 -0.9335516235156511
227 -2.792564362331516 -1.640214138580684 1.74655402650405
19 -4.260748662981177 10.479014004463853 -1.6376504834391399
146 3.315992206284888 2.324170055839427 -1.8795968948927113
251 -0.7945322203013723 2.0749378618649508 7.7406054967190725
246 0.33715332378124 -2.5756546255099817 9.493927995058595
191 -5.573427433067513 -1.839799638049871 6.149970182634547
46 -3.08388643449653 -3.35840669585825 1.711665975314188
204 -3.553354503221448 0.028433054070791452 -4.6899129230418835
158 2.151585520329244 10.055749997669315 -2.8451655636860744
1 -4.181511458021758 -3.91822767118944 0.8493513400888759
101 5.79465847288648 4.596770946447929 0.8955547940561294
147 -5.0162449059129095 6.223349577511649 -6.146672168467992
64 -2.0011514092525657 2.172485731841615 3.771994515197536
254 2.995272452970545 -1.4546216961134273 9.046355558141233
8 4.206595776745916 -8.846739329509706 -4.248936758483635
130 1.9397914435119288 2.6647898773019896 5.507989905471497
173 -0.042901979249456025 3.4695588882986703 -3.9920313118687236
15 9.669472665288778 5.485784656845558 -5.597128172520408
224 -4.102535787002062 -9.66792371391716 -2.3835626964319956
81 -3.823991289349329 0.10650743958369967 -4.000096767561905
121 -2.2198392763125887 7.450945078599807 -4.762355868260759
38 -4.707937231277457 7.116022223395589 2.1031183224607584
75 -2.587290191632504 -2.4078505937065526 -7.757460751979114
53 -1.659648369548441 -1.1982307060228437 1.5074833277122515
29 8.248154018648206 -1.5682931931986959 -11.953399058475197
76 5.890572984978233 -10.26670733224306 -0.16323248022866038
207 -9.00021820998368 0.7519069616566333 4.043064340807231
166 -3.0356628594413184 -0.14033913457609926 4.795890097412166
170 -1.8827370954401574 -3.370394865268947 1.2519943274211467
155 6.619972457015082 -1.8297442680374445 2.8007136873983565
151 -6.4352894879435745 3.0489105173573128 6.565739390868075
59 7.643289684639217 -10.078693159707518 -6.735295937662047
223 -1.6884657196032669 -4.336378876073401 1.4336306503680636
87 1.2367625768042714 -2.4605164549476712 -8.087418113251116
45 -1.654690397310394 -8.483974834078811 -3.545955545099171
211 -1.913934209221869 -9.668766737978732 0.2853673779168341
85 4.560524098648618 0.5094852645306468 -9.235424336072764
241 4.927968580545013 -6.2928135302263435 0.9672417696555465
253 10.795433802874001 4.05594536279733 3.0651484958018576
68 -0.32070917641276214 0.7091171316331067 -2.443337504687937
196 2.378566207933673 -2.1613517078280435 -10.720805577655698
118 -0.9451620281636255 4.282004825701899 0.4799280985903044
189 4.805027095537367 7.5287755424789 -7.603451658624914
97 -9.586931458833723 -6.527574915260086 1.8527084969955399
125 4.790885740510582 -2.581379741808405 3.4885501399713568
54 -3.4858403542107057 -0.122858289144997 -2.227041622556966
69 6.039105149073625 5.354232459544472 2.674801167112853
212 -2.0023373102162596 3.6954371546670597 -3.8071053192773463
202 -1.8410296364286343 4.813382491386717 -6.6234594687783055
220 7.786868380395694 4.413143945423092 -1.1584282004461028
107 5.876912009873185 0.22819114016911324 11.974543810870646
182 0.7007178337938369 -3.641542174853933 -5.826102363895911
209 -4.025027742165257 0.11380298550275732 3.697278903793761
141 2.971168311626442 -8.2249503418992 -0.9272759058493766
131 7.4062531201614705 -0.4173325016175889 -0.24153633218123813
41 -8.620030071694412 -3.325299278526785 7.123760750325579
23 -2.2467895200333814 0.3690452148620155 -5.049777182541585
78 -3.679716225279911 -5.269088368838235 6.083523931273899
229 -1.2328452913011556 -5.492810138176206 -2.6343412201940795
92 -5.675240301033321 0.8776220667538466 6.1858788559707625
164 2.8110110982440966 -1.105866286808398 0.14433561391019525
217 2.466498663878938 4.855032148368939 -7.453941766225957
236 -6.559683194232962 -5.8532505519437965 -0.4855766399641415
221 -0.026430556721006145 1.5747612354514324 -3.752041464286004
3 -1.8821125722175311 -3.9560787219408415 2.8212224256829406
169 2.85685373452399 3.393027434763656 6.1109634104923956